#           y             T         TMean   TPrime2Mean           U_x           U_y           U_z       UMean_x       UMean_y       UMean_z UPrime2Mea... UPrime2Mea... UPrime2Mea... UPrime2Mea... UPrime2Mea... UPrime2Mea...            O2           H2O          C3H8             p         pMean   pPrime2Mean           CO2
         0.02       344.888       289.508       101.411       18.4194      0.094827             0       21.6265     -0.884074             0       40.9346      -2.73316             0       19.9421             0             0      0.157945   1.01759e-08      0.313281        102422        103116        180865   1.86442e-08
    0.0201677       340.499       289.398       90.9878       18.9225      0.312189             0       21.6458     -0.864882             0       40.6821       -1.9424             0        20.294             0             0      0.162354   8.83428e-09      0.294115        102424        103115        181366   1.61861e-08
    0.0203353        336.11       289.288       80.5641       19.4256      0.529551             0        21.665      -0.84569             0       40.4297      -1.15164             0       20.6458             0             0      0.166762   7.49264e-09      0.274949        102427        103115        181867   1.37279e-08
     0.020503       331.722       289.178       70.1404       19.9287      0.746913             0       21.6842     -0.826498             0       40.1773     -0.360886             0       20.9976             0             0       0.17117     6.151e-09      0.255783        102430        103114        182367   1.12698e-08
    0.0206707       327.333       289.068       59.7167       20.4318      0.964275             0       21.7035     -0.807306             0       39.9249      0.429873             0       21.3494             0             0      0.175578   4.80936e-09      0.236617        102432        103114        182868   8.81164e-09
    0.0208383       322.944       288.958       49.2931       20.9349       1.18164             0       21.7227     -0.788114             0       39.6724       1.22063             0       21.7012             0             0      0.179986   3.46771e-09      0.217451        102435        103113        183369    6.3535e-09
     0.021006       318.625        288.85       39.0912        21.433       1.40157             0       21.7363     -0.768499             0       39.4269       2.01588             0       22.0547             0             0      0.184357   2.16443e-09      0.198447        102437        103113        183869   3.96563e-09
    0.0211737       316.158       288.792       34.8598       21.7965       1.69082             0       21.5976      -0.73749             0       39.3654       2.93195             0       22.4516             0             0      0.187725   1.89356e-09      0.183806        102440        103112        184360   3.46936e-09
    0.0213413       313.692       288.733       30.6285       22.1599       1.98007             0       21.4589     -0.706481             0        39.304       3.84802             0       22.8485             0             0      0.191092   1.62269e-09      0.169165        102443        103112        184850   2.97308e-09
     0.021509       311.226       288.675       26.3971       22.5234       2.26932             0       21.3203     -0.675472             0       39.2425       4.76409             0       23.2454             0             0       0.19446   1.35183e-09      0.154523        102445        103111        185341    2.4768e-09
    0.0216767        308.76       288.617       22.1658       22.8868       2.55857             0       21.1816     -0.644463             0       39.1811       5.68015             0       23.6423             0             0      0.197827   1.08096e-09      0.139882        102448        103111        185832   1.98053e-09
    0.0218443       306.294       288.559       17.9344       23.2503       2.84782             0       21.0429     -0.613454             0       39.1196       6.59622             0       24.0393             0             0      0.201195   8.10097e-10      0.125241        102451        103110        186322   1.48425e-09
     0.022012       303.911       288.503       13.8855       23.5995        3.1362             0       20.8934      -0.58366             0       39.0554       7.50523             0        24.441             0             0      0.204476   5.53671e-10      0.110974        102453        103110        186816   1.01443e-09
    0.0221797       302.608       288.473       12.2001       23.7646       3.41317             0       20.6023     -0.569611             0       38.9546       8.32269             0        24.905             0             0       0.20664   4.84363e-10      0.101564        102456        103109        187346   8.87443e-10
    0.0223473       301.305       288.444       10.5148       23.9296       3.69014             0       20.3113     -0.555562             0       38.8537       9.14015             0       25.3691             0             0      0.208805   4.15054e-10     0.0921542        102459        103109        187876   7.60457e-10
     0.022515       300.002       288.415       8.82947       24.0946       3.96712             0       20.0203     -0.541513             0       38.7529       9.95762             0       25.8331             0             0      0.210969   3.45746e-10     0.0827441        102462        103108        188407   6.33471e-10
    0.0226827       298.699       288.386       7.14414       24.2596       4.24409             0       19.7293     -0.527464             0       38.6521       10.7751             0       26.2972             0             0      0.213133   2.76438e-10     0.0733341        102464        103108        188937   5.06485e-10
    0.0228504       297.396       288.356       5.45881       24.4247       4.52106             0       19.4383     -0.513415             0       38.5513       11.5925             0       26.7612             0             0      0.215297   2.07129e-10      0.063924        102467        103107        189468     3.795e-10
     0.023018        296.16       288.329       3.89954       24.5815       4.80183             0       19.1358     -0.502924             0       38.4253         12.38             0       27.2492             0             0      0.217347   1.43367e-10     0.0550114        102470        103107        190006   2.62675e-10
    0.0231857       295.485       288.319       3.38734       24.6698        5.1141             0       18.7377     -0.521983             0       38.0907       12.9186             0       27.9361             0             0      0.218447   1.25665e-10     0.0502308        102473        103106        190614   2.30242e-10
    0.0233534        294.81       288.309       2.87514       24.7582       5.42636             0       18.3396     -0.541042             0       37.7561       13.4572             0       28.6229             0             0      0.219546   1.07963e-10     0.0454501        102477        103106        191221   1.97809e-10
     0.023521       294.135       288.299       2.36293       24.8466       5.73863             0       17.9415     -0.560101             0       37.4215       13.9958             0       29.3097             0             0      0.220646   9.02618e-11     0.0406695        102480        103105        191829   1.65376e-10
    0.0236887        293.46       288.289       1.85073        24.935        6.0509             0       17.5434      -0.57916             0       37.0868       14.5344             0       29.9966             0             0      0.221746   7.25601e-11     0.0358888        102483        103105        192436   1.32944e-10
    0.0238564       292.785       288.278       1.33853       25.0234       6.36317             0       17.1453      -0.59822             0       36.7522        15.073             0       30.6834             0             0      0.222845   5.48584e-11     0.0311081        102486        103105        193044   1.00511e-10
     0.024024       292.155        288.27      0.883442       25.0896       6.67269             0       16.7482     -0.623149             0       36.4613       15.5639             0       31.4057             0             0      0.223848    3.9039e-11     0.0267473        102490        103104        193668   7.15267e-11
    0.0241917       291.793        288.27      0.769864       25.0236       6.96581             0       16.3571      -0.68318             0       36.4319       15.7696             0       32.3401             0             0      0.224274   3.44743e-11      0.024897        102493        103104        194397   6.31634e-11
    0.0243594       291.431       288.271      0.656286       24.9575       7.25893             0        15.966     -0.743211             0       36.4026       15.9754             0       33.2744             0             0      0.224699   2.99097e-11     0.0230467        102496        103103        195125   5.48001e-11
     0.024527       291.069       288.272      0.542709       24.8914       7.55205             0       15.5749     -0.803242             0       36.3732       16.1812             0       34.2088             0             0      0.225125    2.5345e-11     0.0211964        102500        103102        195854   4.64368e-11
    0.0246947       290.707       288.272      0.429131       24.8253       7.84517             0       15.1838     -0.863273             0       36.3438       16.3869             0       35.1432             0             0       0.22555   2.07804e-11     0.0193461        102503        103102        196582   3.80736e-11
    0.0248624       290.345       288.273      0.315553       24.7592       8.13829             0       14.7928     -0.923304             0       36.3144       16.5927             0       36.0775             0             0      0.225976   1.62157e-11     0.0174958        102506        103101        197311   2.97103e-11
      0.02503        290.02       288.274      0.219318       24.6352       8.40803             0       14.4194     -0.989346             0        36.283        16.772             0       37.0526             0             0      0.226343   1.22836e-11     0.0158992        102509        103101        198070   2.25058e-11
    0.0251977       289.867       288.278      0.202573       24.2456        8.5706             0       14.1274      -1.08294             0        36.242       16.8304             0       38.2144             0             0      0.226443   1.12504e-11     0.0154655        102512        103100        198969   2.06128e-11
    0.0253654       289.714       288.282      0.185828       23.8561       8.73317             0       13.8353      -1.17654             0        36.201       16.8887             0       39.3762             0             0      0.226543   1.02172e-11     0.0150318        102514        103099        199868   1.87198e-11
     0.025533       289.562       288.286      0.169083       23.4665       8.89573             0       13.5433      -1.27013             0       36.1601       16.9471             0        40.538             0             0      0.226642   9.18403e-12     0.0145981        102517        103098        200767   1.68269e-11
    0.0257007       289.409        288.29      0.152339        23.077        9.0583             0       13.2512      -1.36373             0       36.1191       17.0054             0       41.6997             0             0      0.226742   8.15084e-12     0.0141644        102520        103097        201666   1.49339e-11
    0.0258684       289.256       288.295      0.135594       22.6874       9.22087             0       12.9592      -1.45732             0       36.0782       17.0638             0       42.8615             0             0      0.226842   7.11765e-12     0.0137307        102522        103096        202565   1.30409e-11
     0.026036       289.124       288.298      0.122146       22.2341       9.34892             0       12.6796      -1.55484             0       35.9126       17.0971             0       44.0601             0             0       0.22692   6.26077e-12     0.0133906        102525        103095        203510   1.14709e-11
    0.0262037       289.067         288.3      0.120742       21.5474       9.35087             0       12.4455      -1.66669             0       35.2916       17.0389             0       45.3928             0             0       0.22692    6.0479e-12     0.0133923        102528        103093        204621   1.10809e-11
    0.0263714       289.009       288.303      0.119338       20.8608       9.35282             0       12.2115      -1.77853             0       34.6706       16.9808             0       46.7256             0             0      0.226919   5.83502e-12     0.0133941        102531        103092        205733   1.06908e-11
     0.026539       288.952       288.305      0.117934       20.1742       9.35477             0       11.9774      -1.89038             0       34.0496       16.9226             0       48.0583             0             0      0.226919   5.62215e-12     0.0133958        102534        103091        206845   1.03008e-11
    0.0267067       288.895       288.307       0.11653       19.4875       9.35672             0       11.7433      -2.00223             0       33.4286       16.8644             0       49.3911             0             0      0.226919   5.40928e-12     0.0133975        102537        103089        207957    9.9108e-12
    0.0268744       288.838        288.31      0.115126       18.8009       9.35868             0       11.5092      -2.11408             0       32.8075       16.8063             0       50.7239             0             0      0.226918    5.1964e-12     0.0133993        102540        103088        209068   9.52078e-12
     0.027042       288.786       288.312      0.114146        18.073       9.32733             0       11.2679      -2.22738             0       32.1356       16.6992             0       52.0855             0             0      0.226914   5.00567e-12     0.0134166        102543        103086        210216   9.17132e-12
    0.0272097       288.752       288.312      0.114432       17.2217        9.1965             0       11.0053      -2.34505             0       31.3113       16.4463             0       53.5334             0             0      0.226899   4.88108e-12     0.0134805        102547        103085        211473   8.94305e-12
    0.0273774       288.718       288.313      0.114717       16.3703       9.06567             0       10.7426      -2.46271             0        30.487       16.1934             0       54.9813             0             0      0.226885    4.7565e-12     0.0135444        102550        103083        212730   8.71479e-12
     0.027545       288.683       288.313      0.115003        15.519       8.93484             0       10.4799      -2.58038             0       29.6627       15.9404             0       56.4292             0             0       0.22687   4.63191e-12     0.0136082        102554        103081        213986   8.48652e-12
    0.0277127       288.649       288.314      0.115289       14.6676       8.80402             0       10.2172      -2.69805             0       28.8384       15.6875             0       57.8771             0             0      0.226855   4.50732e-12     0.0136721        102558        103080        215243   8.25826e-12
    0.0278804       288.615       288.315      0.115575       13.8163       8.67319             0       9.95447      -2.81571             0       28.0141       15.4345             0        59.325             0             0      0.226841   4.38274e-12      0.013736        102562        103078        216500   8.02999e-12
     0.028048       288.582       288.315      0.115918       12.9407       8.51041             0       9.68628      -2.93577             0       27.1813       15.1308             0       60.7579             0             0      0.226817   4.23444e-12     0.0138396        102565        103076        217744   7.75828e-12
    0.0282157       288.552       288.316      0.116404       12.0049       8.26811             0       9.40441      -3.06179             0       26.3275       14.7007             0       62.1533             0             0       0.22677   4.02709e-12     0.0140424        102570        103074        218957   7.37838e-12
    0.0283834       288.522       288.317      0.116891        11.069        8.0258             0       9.12254      -3.18781             0       25.4737       14.2706             0       63.5487             0             0      0.226724   3.81974e-12     0.0142451        102574        103073        220169   6.99848e-12
    0.0285511       288.493       288.317      0.117377       10.1332        7.7835             0       8.84067      -3.31383             0       24.6198       13.8406             0       64.9442             0             0      0.226677    3.6124e-12     0.0144478        102578        103071        221382   6.61858e-12
    0.0287187       288.463       288.318      0.117864       9.19731        7.5412             0       8.55881      -3.43985             0        23.766       13.4105             0       66.3396             0             0       0.22663   3.40505e-12     0.0146506        102583        103069        222595   6.23868e-12
    0.0288864       288.434       288.319       0.11835       8.26146       7.29889             0       8.27694      -3.56587             0       22.9121       12.9804             0        67.735             0             0      0.226584    3.1977e-12     0.0148533        102587        103067        223808   5.85879e-12
    0.0290541       288.405       288.319      0.118746       7.31949       7.04615             0       7.99386      -3.69378             0       22.0937       12.5039             0        69.042             0             0       0.22644    2.9879e-12      0.015479        102591        103065        224944   5.47439e-12
    0.0292217       288.379        288.32      0.118953       6.36468       6.77147             0       7.70825      -3.82565             0       21.3496       11.9297             0       70.1631             0             0      0.226091   2.77293e-12     0.0169937        102596        103064        225917   5.08053e-12
    0.0293894       288.353        288.32       0.11916       5.40986       6.49679             0       7.42263      -3.95752             0       20.6056       11.3555             0       71.2842             0             0      0.225743   2.55797e-12     0.0185084        102600        103062        226890   4.68667e-12
    0.0295571       288.327       288.321      0.119367       4.45505       6.22211             0       7.13702      -4.08939             0       19.8615       10.7813             0       72.4053             0             0      0.225395     2.343e-12     0.0200231        102604        103060        227863   4.29281e-12
    0.0297247         288.3       288.322      0.119574       3.50024       5.94743             0       6.85141      -4.22125             0       19.1175       10.2072             0       73.5264             0             0      0.225046   2.12803e-12     0.0215378        102609        103058        228836   3.89895e-12
    0.0298924       288.274       288.322      0.119781       2.54542       5.67275             0        6.5658      -4.35312             0       18.3734       9.63299             0       74.6475             0             0      0.224698   1.91307e-12     0.0230525        102613        103057        229809   3.50509e-12
    0.0300601        288.25       288.323       0.11989       1.73179       5.36823             0       6.28041      -4.48462             0       17.7794       9.01574             0       75.6219             0             0      0.224056   1.71059e-12     0.0258428        102617        103055        230647   3.13412e-12
    0.0302277       288.231       288.323      0.119824        1.1711       5.01023             0       5.99542      -4.61546             0       17.4542       8.32134             0       76.3335             0             0      0.222889    1.5305e-12     0.0309185        102621        103054        231246   2.80416e-12
    0.0303954       288.211       288.323      0.119758      0.610416       4.65223             0       5.71044      -4.74629             0        17.129       7.62693             0        77.045             0             0      0.221721   1.35041e-12     0.0359942        102625        103052        231845   2.47419e-12
    0.0305631       288.192       288.324      0.119692     0.0497291       4.29423             0       5.42545      -4.87713             0       16.8037       6.93253             0       77.7565             0             0      0.220554   1.17031e-12     0.0410699        102629        103051        232444   2.14423e-12
    0.0307307       288.172       288.324      0.119626     -0.510957       3.93623             0       5.14047      -5.00796             0       16.4785       6.23812             0       78.4681             0             0      0.219387   9.90219e-13     0.0461456        102633        103050        233042   1.81427e-12
    0.0308984       288.153       288.325       0.11956      -1.07164       3.57823             0       4.85548       -5.1388             0       16.1533       5.54372             0       79.1796             0             0      0.218219   8.10126e-13     0.0512213        102637        103048        233641    1.4843e-12
    0.0310661       288.139       288.325      0.119504      -1.42971       3.18655             0       4.57346      -5.26611             0        16.004        4.8435             0       79.7224             0             0      0.217075   6.62702e-13     0.0561965        102641        103047        234096   1.21419e-12
    0.0312337       288.135       288.325      0.119464      -1.47615       2.74306             0       4.29599      -5.38802             0       16.1253       4.13435             0       80.0057             0             0      0.215966    5.6552e-13     0.0610171        102644        103046        234330   1.03614e-12
    0.0314014       288.131       288.326      0.119424       -1.5226       2.29957             0       4.01853      -5.50992             0       16.2466       3.42519             0        80.289             0             0      0.214857   4.68337e-13     0.0658377        102646        103045        234563    8.5808e-13
    0.0315691       288.126       288.326      0.119385      -1.56905       1.85609             0       3.74106      -5.63182             0       16.3679       2.71604             0       80.5723             0             0      0.213749   3.71154e-13     0.0706583        102649        103044        234797   6.80023e-13
    0.0317367       288.122       288.326      0.119345       -1.6155        1.4126             0       3.46359      -5.75373             0       16.4891       2.00688             0       80.8556             0             0       0.21264   2.73971e-13      0.075479        102652        103043        235031   5.01966e-13
    0.0319044       288.118       288.326      0.119305      -1.66195      0.969115             0       3.18612      -5.87563             0       16.6104       1.29773             0       81.1389             0             0      0.211531   1.76788e-13     0.0802996        102655        103042        235264   3.23909e-13
    0.0320721       288.119       288.326      0.119252      -1.68176      0.561805             0       2.91569      -5.99211             0       16.8301      0.639668             0       81.2637             0             0      0.210737   1.13155e-13     0.0837512        102657        103041        235379   2.07321e-13
    0.0322397       288.126       288.326      0.119181      -1.66624      0.202479             0        2.6546      -6.10138             0       17.1804     0.0493786             0       81.1785             0             0      0.210361    9.4022e-14     0.0853871        102658        103041        235336   1.72266e-13
    0.0324074       288.134       288.326       0.11911      -1.65071     -0.156848             0       2.39351      -6.21065             0       17.5307      -0.54091             0       81.0932             0             0      0.209985    7.4889e-14      0.087023        102659        103040        235292   1.37211e-13
    0.0325751       288.142       288.326       0.11904      -1.63519     -0.516174             0       2.13241      -6.31993             0       17.8809       -1.1312             0       81.0079             0             0      0.209608   5.57559e-14     0.0886588        102660        103040        235249   1.02155e-13
    0.0327427        288.15       288.326      0.118969      -1.61966       -0.8755             0       1.87132       -6.4292             0       18.2312      -1.72149             0       80.9227             0             0      0.209232   3.66229e-14     0.0902947        102662        103039        235205   6.70999e-14
    0.0329104       288.158       288.326      0.118898      -1.60414      -1.23483             0       1.61023      -6.53847             0       18.5815      -2.31178             0       80.8374             0             0      0.208856   1.74898e-14     0.0919305        102663        103038        235162   3.20446e-14
    0.0330781       288.169       288.325      0.118811      -1.63797      -1.56336             0       1.35937      -6.64097             0       18.9292      -2.78756             0       80.6075             0             0      0.208382   6.79964e-15     0.0939911        102663        103038        235053   1.24582e-14
    0.0332457       288.184       288.325      0.118705      -1.72843      -1.85657             0       1.12025      -6.73569             0       19.2741      -3.13196             0       80.2115             0             0      0.207796    5.7971e-15     0.0965389        102663        103038        234868   1.06214e-14
    0.0334134       288.199       288.325      0.118599      -1.81889      -2.14977             0      0.881138      -6.83041             0        19.619      -3.47635             0       79.8156             0             0       0.20721   4.79457e-15     0.0990867        102663        103038        234683   8.78455e-15
    0.0335811       288.214       288.324      0.118493      -1.90935      -2.44298             0      0.642023      -6.92513             0       19.9639      -3.82075             0       79.4197             0             0      0.206624   3.79204e-15      0.101634        102663        103037        234498   6.94772e-15
    0.0337487       288.229       288.324      0.118387      -1.99982      -2.73619             0      0.402908      -7.01984             0       20.3088      -4.16514             0       79.0238             0             0      0.206038    2.7895e-15      0.104182        102663        103037        234313   5.11089e-15
    0.0339164       288.244       288.324      0.118281      -2.09028      -3.02939             0      0.163794      -7.11456             0       20.6537      -4.50954             0       78.6279             0             0      0.205452   1.78697e-15       0.10673        102663        103037        234128   3.27406e-15
    0.0340841       288.253       288.324      0.118182      -2.17867       -3.3146             0    -0.0632187      -7.20091             0       20.9306      -4.70468             0       78.1061             0             0      0.204743   1.26814e-15      0.109815        102662        103037        233925   2.32346e-15
    0.0342518       288.256       288.323      0.118091      -2.26499      -3.59184             0     -0.278201      -7.27894             0       21.1399      -4.75147             0       77.4592             0             0       0.20391   1.23013e-15      0.113434        102661        103037        233704   2.25382e-15
    0.0344194       288.258       288.323         0.118      -2.35132      -3.86909             0     -0.493183      -7.35696             0       21.3493      -4.79825             0       76.8124             0             0      0.203078   1.19212e-15      0.117053        102660        103037        233483   2.18418e-15
    0.0345871       288.261       288.323      0.117909      -2.43764      -4.14633             0     -0.708165      -7.43499             0       21.5586      -4.84504             0       76.1655             0             0      0.202245   1.15411e-15      0.120672        102659        103037        233261   2.11454e-15
    0.0347548       288.264       288.322      0.117818      -2.52397      -4.42358             0     -0.923147      -7.51301             0        21.768      -4.89182             0       75.5186             0             0      0.201413    1.1161e-15      0.124291        102658        103037        233040   2.04491e-15
    0.0349224       288.267       288.322      0.117727      -2.61029      -4.70082             0      -1.13813      -7.59104             0       21.9773      -4.93861             0       74.8718             0             0      0.200581   1.07809e-15       0.12791        102657        103037        232819   1.97527e-15
    0.0350901       288.258       288.322      0.117717      -2.70369      -4.93968             0      -1.34184       -7.6582             0       22.1139      -4.85364             0       74.1108             0             0       0.19992    1.0498e-15      0.130783        102655        103038        232611   1.92342e-15
    0.0352578       288.239       288.322      0.117776      -2.80317      -5.14549             0      -1.53585        -7.716             0       22.1879      -4.65523             0       73.2516             0             0      0.199407   1.02986e-15      0.133015        102653        103038        232417    1.8869e-15