#           y             T         TMean   TPrime2Mean           U_x           U_y           U_z       UMean_x       UMean_y       UMean_z UPrime2Mea... UPrime2Mea... UPrime2Mea... UPrime2Mea... UPrime2Mea... UPrime2Mea...            O2           H2O          C3H8             p         pMean   pPrime2Mean           CO2
         0.03       287.486       288.536      0.307016          9.34        1.2814             0       3.73533      0.874732             0       18.9364      -1.68611             0       53.3559             0             0      0.197723   4.58863e-16      0.140335        102339        103126        267501   8.40723e-16
    0.0301702       287.485       288.534      0.304198        9.3628       1.28893             0       3.70341      0.912779             0       18.9902      -1.65811             0       53.2713             0             0      0.197786   4.63547e-16       0.14006        102339        103126        266984   8.49305e-16
    0.0303403       287.485       288.532       0.30138        9.3856       1.29645             0        3.6715      0.950825             0       19.0439      -1.63012             0       53.1867             0             0       0.19785   4.68231e-16      0.139784        102339        103127        266466   8.57886e-16
    0.0305105       287.485        288.53      0.298561        9.4084       1.30397             0       3.63959      0.988871             0       19.0977      -1.60213             0       53.1021             0             0      0.197913   4.72914e-16      0.139509        102338        103127        265949   8.66467e-16
    0.0306807       287.484       288.529      0.295743        9.4312        1.3115             0       3.60768       1.02692             0       19.1515      -1.57413             0       53.0176             0             0      0.197976   4.77598e-16      0.139233        102338        103127        265431   8.75049e-16
    0.0308509       287.484       288.527      0.292925         9.454       1.31902             0       3.57577       1.06496             0       19.2053      -1.54614             0        52.933             0             0       0.19804   4.82282e-16      0.138958        102338        103128        264914    8.8363e-16
     0.031021       287.483       288.525       0.29022       9.47411       1.33032             0       3.54601       1.10342             0       19.2799       -1.5133             0       52.8351             0             0      0.198096   4.86781e-16      0.138712        102338        103128        264389   8.91874e-16
    0.0311912       287.481       288.523      0.288319       9.47512       1.36838             0       3.53156       1.14482             0       19.5026      -1.44612             0       52.6432             0             0      0.198104   4.89974e-16       0.13868        102339        103128        263813   8.97724e-16
    0.0313614       287.479       288.521      0.286418       9.47613       1.40645             0       3.51711       1.18622             0       19.7253      -1.37893             0       52.4513             0             0      0.198111   4.93167e-16      0.138647        102339        103129        263236   9.03574e-16
    0.0315315       287.477       288.518      0.284517       9.47714       1.44451             0       3.50266       1.22761             0        19.948      -1.31174             0       52.2594             0             0      0.198119    4.9636e-16      0.138615        102340        103129        262660   9.09425e-16
    0.0317017       287.476       288.516      0.282616       9.47815       1.48258             0       3.48821       1.26901             0       20.1706      -1.24456             0       52.0674             0             0      0.198126   4.99553e-16      0.138582        102340        103130        262084   9.15275e-16
    0.0318719       287.474       288.514      0.280715       9.47916       1.52064             0       3.47376        1.3104             0       20.3933      -1.17737             0       51.8755             0             0      0.198134   5.02746e-16       0.13855        102340        103130        261508   9.21125e-16
     0.032042       287.472       288.512      0.279095       9.47453        1.5644             0       3.46267       1.35194             0       20.6647      -1.09571             0       51.6612             0             0      0.198122   5.05555e-16      0.138599        102341        103131        260927   9.26272e-16
    0.0322122        287.47        288.51      0.278331       9.45272       1.62549             0       3.46184       1.39393             0       21.0844     -0.969918             0       51.3786             0             0      0.198054   5.07194e-16      0.138895        102342        103131        260332   9.29275e-16
    0.0323824       287.468       288.507      0.277568       9.43092       1.68659             0         3.461       1.43591             0       21.5041     -0.844128             0       51.0961             0             0      0.197986   5.08833e-16      0.139192        102342        103132        259737   9.32277e-16
    0.0325526       287.466       288.505      0.276804       9.40911       1.74769             0       3.46017       1.47789             0       21.9238     -0.718338             0       50.8135             0             0      0.197918   5.10472e-16      0.139488        102343        103133        259142    9.3528e-16
    0.0327227       287.464       288.503      0.276041       9.38731       1.80878             0       3.45933       1.51988             0       22.3435     -0.592548             0        50.531             0             0      0.197849   5.12111e-16      0.139785        102344        103133        258546   9.38283e-16
    0.0328929       287.462       288.501      0.275277        9.3655       1.86988             0        3.4585       1.56186             0       22.7632     -0.466759             0       50.2484             0             0      0.197781    5.1375e-16      0.140082        102345        103134        257951   9.41286e-16
    0.0330631       287.462       288.499      0.274855       9.33734       1.93376             0       3.46038       1.60332             0       23.2863     -0.320505             0       49.9394             0             0      0.197668   5.14972e-16      0.140575        102346        103134        257359   9.43525e-16
    0.0332332       287.463       288.496      0.275014       9.29838       2.00235             0       3.46688       1.64388             0       23.9851     -0.139497             0       49.5853             0             0      0.197477   5.15488e-16      0.141403        102347        103135        256771   9.44469e-16
    0.0334034       287.465       288.494      0.275173       9.25943       2.07094             0       3.47338       1.68445             0        24.684     0.0415119             0       49.2313             0             0      0.197287   5.16003e-16       0.14223        102348        103136        256182   9.45413e-16
    0.0335736       287.466       288.492      0.275332       9.22047       2.13953             0       3.47989       1.72501             0       25.3828      0.222521             0       48.8773             0             0      0.197097   5.16518e-16      0.143058        102349        103136        255594   9.46357e-16
    0.0337437       287.467        288.49      0.275491       9.18152       2.20811             0       3.48639       1.76558             0       26.0816      0.403529             0       48.5232             0             0      0.196906   5.17033e-16      0.143886        102350        103137        255006   9.47301e-16
    0.0339139       287.469       288.487       0.27565       9.14256        2.2767             0       3.49289       1.80614             0       26.7805      0.584538             0       48.1692             0             0      0.196716   5.17548e-16      0.144713        102352        103138        254418   9.48245e-16
    0.0340841       287.473       288.485      0.276113       9.09908       2.33994             0       3.50181       1.84493             0       27.6164      0.787443             0       47.7825             0             0      0.196451   5.18167e-16      0.145864        102353        103139        253840   9.49379e-16
    0.0342543       287.481       288.483      0.276887       9.05098        2.3977             0       3.51321       1.88189             0       28.5927       1.01277             0       47.3623             0             0       0.19611   5.18893e-16      0.147346        102354        103139        253274   9.50709e-16
    0.0344244        287.49       288.482      0.277661       9.00287       2.45546             0       3.52461       1.91885             0        29.569       1.23809             0       46.9421             0             0       0.19577   5.19619e-16      0.148828        102355        103140        252709   9.52039e-16
    0.0345946       287.498        288.48      0.278435       8.95477       2.51322             0       3.53602       1.95581             0       30.5453       1.46341             0       46.5219             0             0      0.195429   5.20345e-16      0.150309        102357        103141        252143   9.53368e-16
    0.0347648       287.506       288.478      0.279209       8.90666       2.57098             0       3.54742       1.99278             0       31.5216       1.68873             0       46.1017             0             0      0.195088    5.2107e-16      0.151791        102358        103142        251577   9.54698e-16
    0.0349349       287.514       288.476      0.279983       8.85856       2.62874             0       3.55882       2.02974             0       32.4979       1.91406             0       45.6815             0             0      0.194747   5.21796e-16      0.153273        102359        103143        251011   9.56027e-16
    0.0351051       287.527       288.475        0.2807       8.81207       2.67123             0       3.57372       2.06353             0       33.5647       2.14272             0        45.223             0             0       0.19434   5.24032e-16      0.155042        102360        103144        250462   9.60125e-16
    0.0352753       287.542       288.473      0.281382       8.76659       2.70426             0       3.59078       2.09536             0       34.6876       2.37346             0       44.7407             0             0      0.193892   5.27204e-16      0.156989        102361        103145        249924   9.65935e-16
    0.0354454       287.558       288.472      0.282064        8.7211        2.7373             0       3.60784       2.12719             0       35.8105        2.6042             0       44.2584             0             0      0.193445   5.30375e-16      0.158936        102363        103146        249386   9.71746e-16
    0.0356156       287.574       288.471      0.282745       8.67562       2.77034             0       3.62491       2.15902             0       36.9334       2.83494             0       43.7761             0             0      0.192997   5.33547e-16      0.160883        102364        103147        248847   9.77557e-16
    0.0357858        287.59        288.47      0.283427       8.63013       2.80337             0       3.64197       2.19086             0       38.0563       3.06567             0       43.2939             0             0      0.192549   5.36718e-16       0.16283        102365        103148        248309   9.83368e-16
     0.035956       287.605       288.469      0.284109       8.58464       2.83641             0       3.65904       2.22269             0       39.1792       3.29641             0       42.8116             0             0      0.192101    5.3989e-16      0.164777        102366        103149        247771   9.89178e-16
    0.0361261       287.627       288.469      0.284012       8.54491       2.85178             0       3.68017       2.24993             0       40.3065       3.48965             0       42.2973             0             0      0.191591    5.4789e-16      0.166996        102367        103150        247276   1.00384e-15
    0.0362963        287.65       288.468      0.283643       8.50718       2.86097             0       3.70272       2.27558             0       41.4353       3.66978             0       41.7718             0             0      0.191059   5.57577e-16      0.169308        102368        103151        246796   1.02159e-15
    0.0364665       287.673       288.468      0.283274       8.46944       2.87016             0       3.72528       2.30122             0       42.5642       3.84992             0       41.2464             0             0      0.190527   5.67264e-16      0.171621        102369        103152        246316   1.03933e-15
    0.0366366       287.697       288.468      0.282905       8.43171       2.87935             0       3.74783       2.32687             0        43.693       4.03006             0       40.7209             0             0      0.189995   5.76951e-16      0.173934        102370        103153        245836   1.05708e-15
    0.0368068        287.72       288.468      0.282535       8.39398       2.88855             0       3.77039       2.35251             0       44.8218        4.2102             0       40.1955             0             0      0.189463   5.86638e-16      0.176247        102371        103154        245356   1.07483e-15
     0.036977       287.743       288.467      0.282166       8.35625       2.89774             0       3.79295       2.37816             0       45.9506       4.39034             0         39.67             0             0      0.188931   5.96325e-16       0.17856        102372        103155        244876   1.09258e-15
    0.0371471        287.77       288.468      0.280363       8.32174       2.89766             0       3.82015       2.39648             0        46.975       4.52707             0       39.1175             0             0      0.188378   6.13228e-16      0.180963        102373        103156        244458   1.12355e-15
    0.0373173       287.797       288.468      0.278335       8.28773       2.89612             0       3.84809       2.41366             0        47.983       4.65701             0       38.5608             0             0      0.187822   6.31261e-16      0.183381        102374        103158        244049   1.15659e-15
    0.0374875       287.825       288.468      0.276307       8.25372       2.89459             0       3.87603       2.43084             0        48.991       4.78696             0       38.0041             0             0      0.187266   6.49293e-16      0.185799        102374        103159        243640   1.18963e-15
    0.0376577       287.852       288.469      0.274279       8.21971       2.89306             0       3.90397       2.44803             0        49.999        4.9169             0       37.4474             0             0       0.18671   6.67326e-16      0.188217        102375        103160        243231   1.22266e-15
    0.0378278       287.879       288.469      0.272251        8.1857       2.89152             0       3.93191       2.46521             0        51.007       5.04684             0       36.8907             0             0      0.186154   6.85358e-16      0.190635        102376        103161        242822    1.2557e-15
     0.037998       287.906       288.469      0.270223       8.15169       2.88999             0       3.95984       2.48239             0        52.015       5.17679             0        36.334             0             0      0.185598   7.03391e-16      0.193053        102377        103162        242413   1.28874e-15
    0.0381682       287.929        288.47      0.266539       8.11718       2.89025             0       3.99381       2.48873             0       52.7947       5.32073             0       35.7437             0             0      0.185194   7.24619e-16      0.194808        102377        103164        242088   1.32764e-15
    0.0383383       287.951        288.47      0.262836       8.08266       2.89054             0       4.02786       2.49495             0       53.5716       5.46484             0       35.1529             0             0      0.184792   7.45885e-16      0.196556        102378        103165        241765    1.3666e-15
    0.0385085       287.974        288.47      0.259132       8.04814       2.89083             0        4.0619       2.50116             0       54.3485       5.60895             0       34.5622             0             0       0.18439   7.67151e-16      0.198304        102379        103166        241442   1.40556e-15
    0.0386787       287.996        288.47      0.255429       8.01363       2.89111             0       4.09594       2.50738             0       55.1254       5.75306             0       33.9715             0             0      0.183988   7.88418e-16      0.200051        102379        103168        241118   1.44453e-15
    0.0388488       288.019       288.471      0.251726       7.97911        2.8914             0       4.12998       2.51359             0       55.9023       5.89717             0       33.3807             0             0      0.183586   8.09684e-16      0.201799        102380        103169        240795   1.48349e-15
     0.039019        288.04       288.471      0.247921       7.94454       2.89235             0       4.16451       2.51853             0       56.6506       6.04769             0       32.7854             0             0      0.183215   8.30782e-16      0.203414        102380        103170        240481   1.52215e-15
    0.0391892       288.051       288.471      0.243312       7.90953       2.89856             0       4.20288       2.51329             0       57.1723       6.24916             0       32.1534             0             0      0.183086   8.50538e-16      0.203975        102381        103171        240248   1.55835e-15
    0.0393594       288.063       288.471      0.238703       7.87453       2.90477             0       4.24126       2.50806             0        57.694       6.45063             0       31.5214             0             0      0.182957   8.70295e-16      0.204536        102381        103173        240014   1.59454e-15
    0.0395295       288.074        288.47      0.234095       7.83952       2.91097             0       4.27964       2.50283             0       58.2157        6.6521             0       30.8895             0             0      0.182828   8.90052e-16      0.205097        102382        103174        239780   1.63074e-15
    0.0396997       288.086        288.47      0.229486       7.80452       2.91718             0       4.31801       2.49759             0       58.7373       6.85357             0       30.2575             0             0      0.182699   9.09809e-16      0.205658        102382        103175        239547   1.66694e-15
    0.0398699       288.097        288.47      0.224877       7.76951       2.92339             0       4.35639       2.49236             0        59.259       7.05504             0       29.6256             0             0       0.18257   9.29565e-16      0.206219        102382        103177        239313   1.70314e-15
      0.04004       288.107        288.47      0.220379       7.73623       2.92972             0       4.39512       2.48509             0       59.7309       7.26247             0       28.9863             0             0       0.18249   9.48839e-16      0.206566        102383        103178        239101   1.73845e-15
    0.0402102       288.109       288.469      0.216242       7.70856       2.93642             0       4.43504       2.47119             0       60.0412       7.48927             0       28.3234             0             0      0.182571   9.66543e-16      0.206214        102383        103179        238960   1.77089e-15
    0.0403804       288.112       288.469      0.212105       7.68088       2.94312             0       4.47495       2.45729             0       60.3514       7.71606             0       27.6605             0             0      0.182652   9.84247e-16      0.205862        102384        103180        238819   1.80333e-15
    0.0405506       288.115       288.468      0.207968       7.65321       2.94982             0       4.51486        2.4434             0       60.6616       7.94286             0       26.9976             0             0      0.182733   1.00195e-15      0.205509        102384        103182        238678   1.83576e-15
    0.0407207       288.117       288.468       0.20383       7.62554       2.95652             0       4.55477        2.4295             0       60.9718       8.16965             0       26.3347             0             0      0.182814   1.01966e-15      0.205157        102385        103183        238537    1.8682e-15
    0.0408909        288.12       288.467      0.199693       7.59787       2.96322             0       4.59468        2.4156             0        61.282       8.39645             0       25.6718             0             0      0.182895   1.03736e-15      0.204805        102385        103184        238396   1.90064e-15
    0.0410611       288.121       288.466      0.195912       7.57627       2.96771             0       4.63429       2.39995             0       61.5421       8.60375             0       25.0081             0             0      0.182995   1.05393e-15      0.204369        102386        103186        238287   1.93099e-15
    0.0412312        288.12       288.466      0.192769       7.56555       2.96823             0       4.67338       2.38115             0       61.7127        8.7762             0       24.3429             0             0       0.18313   1.06846e-15      0.203781        102386        103187        238235   1.95762e-15
    0.0414014        288.12       288.465      0.189625       7.55482       2.96874             0       4.71247       2.36235             0       61.8832       8.94866             0       23.6778             0             0      0.183265     1.083e-15      0.203194        102386        103188        238183   1.98425e-15
    0.0415716       288.119       288.464      0.186481       7.54409       2.96926             0       4.75155       2.34355             0       62.0538       9.12111             0       23.0126             0             0      0.183401   1.09753e-15      0.202606        102387        103190        238131   2.01088e-15
    0.0417417       288.118       288.463      0.183337       7.53336       2.96978             0       4.79064       2.32475             0       62.2243       9.29357             0       22.3474             0             0      0.183536   1.11207e-15      0.202019        102387        103191        238079   2.03751e-15
    0.0419119       288.117       288.462      0.180193       7.52264        2.9703             0       4.82973       2.30595             0       62.3948       9.46603             0       21.6822             0             0      0.183671    1.1266e-15      0.201432        102388        103193        238027   2.06414e-15
    0.0420821       288.115       288.461      0.177668       7.52409       2.96648             0        4.8659       2.28575             0       62.5328       9.57972             0       21.0288             0             0      0.183785   1.13702e-15      0.200936        102388        103194        238009   2.08324e-15
    0.0422523       288.112       288.459      0.175807        7.5386       2.95801             0       4.89893       2.26406             0       62.6358       9.63037             0       20.3879             0             0      0.183876   1.14303e-15       0.20054        102388        103195        238026   2.09425e-15
    0.0424224       288.109       288.458      0.173946       7.55312       2.94954             0       4.93197       2.24237             0       62.7388       9.68101             0        19.747             0             0      0.183967   1.14904e-15      0.200143        102389        103196        238043   2.10526e-15
    0.0425926       288.105       288.456      0.172085       7.56763       2.94107             0       4.96501       2.22068             0       62.8418       9.73166             0       19.1062             0             0      0.184058   1.15505e-15      0.199747        102389        103198        238060   2.11627e-15
    0.0427628       288.102       288.455      0.170224       7.58215        2.9326             0       4.99804       2.19899             0       62.9448        9.7823             0       18.4653             0             0      0.184149   1.16106e-15       0.19935        102389        103199        238077   2.12729e-15
    0.0429329       288.099       288.453      0.168364       7.59666       2.92413             0       5.03108       2.17729             0       63.0477       9.83295             0       17.8245             0             0      0.184241   1.16707e-15      0.198953        102389        103200        238094    2.1383e-15
    0.0431031       288.095       288.451      0.167433        7.6272       2.91142             0       5.05675       2.15353             0       63.0762       9.80375             0       17.1971             0             0      0.184307   1.16815e-15      0.198666        102390        103202        238151   2.14027e-15
    0.0432733        288.09       288.448      0.167106       7.66815       2.89596             0       5.07762       2.12842             0        63.056       9.72262             0       16.5784             0             0      0.184356   1.16602e-15      0.198451        102390        103203        238234   2.13637e-15
    0.0434434       288.085       288.446       0.16678       7.70911        2.8805             0       5.09849        2.1033             0       63.0359       9.64149             0       15.9597             0             0      0.184406   1.16389e-15      0.198235        102390        103204        238317   2.13247e-15
    0.0436136        288.08       288.443      0.166454       7.75007       2.86504             0       5.11937       2.07819             0       63.0158       9.56036             0       15.3411             0             0      0.184456   1.16176e-15      0.198019        102391        103205        238401   2.12856e-15
    0.0437838       288.075       288.441      0.166128       7.79103       2.84958             0       5.14024       2.05308             0       62.9957       9.47923             0       14.7224             0             0      0.184505   1.15963e-15      0.197803        102391        103207        238484   2.12466e-15
     0.043954       288.069       288.438      0.165802       7.83198       2.83412             0       5.16111       2.02796             0       62.9756        9.3981             0       14.1038             0             0      0.184555    1.1575e-15      0.197587        102391        103208        238567   2.12076e-15
    0.0441241       288.062       288.435      0.166283       7.89174       2.81337             0       5.17274       1.99716             0       62.7518       9.24334             0       13.5014             0             0      0.184627   1.15165e-15      0.197274        102392        103209        238701   2.11004e-15
    0.0442943       288.054       288.431      0.167064       7.95846       2.79066             0       5.18093       1.96424             0       62.4525       9.06126             0       12.9051             0             0      0.184707   1.14442e-15      0.196924        102392        103210        238854   2.09679e-15
    0.0444645       288.045       288.427      0.167845       8.02519       2.76796             0       5.18912       1.93133             0       62.1531       8.87918             0       12.3088             0             0      0.184788   1.13718e-15      0.196574        102393        103212        239007   2.08353e-15
    0.0446346       288.037       288.424      0.168626       8.09191       2.74525             0       5.19731       1.89841             0       61.8538        8.6971             0       11.7125             0             0      0.184868   1.12995e-15      0.196224        102393        103213        239160   2.07028e-15
    0.0448048       288.028        288.42      0.169407       8.15863       2.72254             0       5.20551       1.86549             0       61.5544       8.51502             0       11.1162             0             0      0.184949   1.12272e-15      0.195874        102393        103214        239313   2.05703e-15
     0.044975        288.02       288.416      0.170188       8.22536       2.69983             0        5.2137       1.83257             0       61.2551       8.33294             0       10.5199             0             0      0.185029   1.11549e-15      0.195524        102394        103215        239466   2.04378e-15
    0.0451451       288.004       288.412      0.171369       8.30198       2.67062             0       5.21223       1.78895             0       60.6703       8.08106             0       9.96139             0             0      0.185186    1.1049e-15      0.194842        102394        103216        239658   2.02439e-15
    0.0453153       287.988       288.407      0.172619       8.38031        2.6403             0       5.20909       1.74348             0       60.0362       7.81714             0       9.40937             0             0      0.185357   1.09374e-15      0.194102        102395        103217        239856   2.00394e-15
    0.0454855       287.971       288.402       0.17387       8.45864       2.60997             0       5.20596       1.69801             0       59.4022       7.55323             0       8.85736             0             0      0.185527   1.08258e-15      0.193362        102395        103218        240054   1.98349e-15