#           y             T         TMean   TPrime2Mean           U_x           U_y           U_z       UMean_x       UMean_y       UMean_z UPrime2Mea... UPrime2Mea... UPrime2Mea... UPrime2Mea... UPrime2Mea... UPrime2Mea...            O2           H2O          C3H8             p         pMean   pPrime2Mean           CO2
         0.04       288.148       288.378      0.107743       -4.3697      -4.67109             0      -5.01546       -7.5312             0       20.9927       6.47945             0       36.2072             0             0      0.197124   9.83212e-16      0.142938        102607        103078        229079   1.80143e-15
     0.039975       288.148       288.378      0.107875       -4.3767      -4.68385             0      -5.00893      -7.53883             0       21.0259       6.38319             0       36.3673             0             0       0.19712   9.83002e-16      0.142955        102607        103078        229063   1.80104e-15
    0.0399499       288.148       288.378      0.108006       -4.3837      -4.69662             0       -5.0024      -7.54646             0       21.0591       6.28693             0       36.5274             0             0      0.197116   9.82793e-16      0.142973        102607        103078        229048   1.80066e-15
    0.0399249       288.148       288.377      0.108138       -4.3907      -4.70939             0      -4.99587       -7.5541             0       21.0922       6.19066             0       36.6874             0             0      0.197112   9.82583e-16       0.14299        102607        103078        229032   1.80027e-15
    0.0398999       288.148       288.377       0.10827       -4.3977      -4.72215             0      -4.98934      -7.56173             0       21.1254        6.0944             0       36.8475             0             0      0.197108   9.82373e-16      0.143007        102607        103077        229017   1.79989e-15
    0.0398749       288.148       288.377      0.108401      -4.40471      -4.73492             0      -4.98281      -7.56936             0       21.1586       5.99814             0       37.0076             0             0      0.197104   9.82164e-16      0.143024        102608        103077        229001   1.79951e-15
    0.0398498       288.148       288.376      0.108533      -4.41171      -4.74768             0      -4.97628      -7.57699             0       21.1917       5.90187             0       37.1677             0             0      0.197101   9.81954e-16      0.143041        102608        103077        228986   1.79912e-15
    0.0398248       288.148       288.376      0.108665      -4.41871      -4.76045             0      -4.96975      -7.58462             0       21.2249       5.80561             0       37.3278             0             0      0.197097   9.81744e-16      0.143058        102608        103077        228970   1.79874e-15
    0.0397998       288.148       288.376      0.108796      -4.42571      -4.77322             0      -4.96322      -7.59225             0       21.2581       5.70934             0       37.4879             0             0      0.197093   9.81534e-16      0.143075        102608        103076        228955   1.79835e-15
    0.0397748       288.148       288.375      0.108928      -4.43271      -4.78598             0      -4.95668      -7.59988             0       21.2912       5.61308             0        37.648             0             0      0.197089   9.81325e-16      0.143092        102608        103076        228939   1.79797e-15
    0.0397497       288.148       288.375       0.10906      -4.43972      -4.79875             0      -4.95015      -7.60751             0       21.3244       5.51682             0       37.8081             0             0      0.197085   9.81115e-16      0.143109        102608        103076        228923   1.79759e-15
    0.0397247       288.148       288.375      0.109191      -4.44672      -4.81152             0      -4.94362      -7.61514             0       21.3575       5.42055             0       37.9681             0             0      0.197081   9.80905e-16      0.143126        102608        103076        228908    1.7972e-15
    0.0396997       288.148       288.374      0.109323      -4.45372      -4.82428             0      -4.93709      -7.62278             0       21.3907       5.32429             0       38.1282             0             0      0.197077   9.80696e-16      0.143144        102608        103076        228892   1.79682e-15
    0.0396747       288.148       288.374      0.109455      -4.46072      -4.83705             0      -4.93056      -7.63041             0       21.4239       5.22803             0       38.2883             0             0      0.197073   9.80486e-16      0.143161        102608        103075        228877   1.79643e-15
    0.0396496       288.148       288.374      0.109587      -4.46772      -4.84981             0      -4.92403      -7.63804             0        21.457       5.13176             0       38.4484             0             0      0.197069   9.80276e-16      0.143178        102608        103075        228861   1.79605e-15
    0.0396246       288.148       288.373      0.109718      -4.47473      -4.86258             0       -4.9175      -7.64567             0       21.4902        5.0355             0       38.6085             0             0      0.197065   9.80067e-16      0.143195        102608        103075        228846   1.79566e-15
    0.0395996       288.148       288.373       0.10985      -4.48173      -4.87535             0      -4.91097       -7.6533             0       21.5234       4.93924             0       38.7686             0             0      0.197061   9.79857e-16      0.143212        102608        103075        228830   1.79528e-15
    0.0395746       288.148       288.373      0.109982      -4.48873      -4.88811             0      -4.90444      -7.66093             0       21.5565       4.84297             0       38.9287             0             0      0.197057   9.79647e-16      0.143229        102608        103075        228815    1.7949e-15
    0.0395495       288.148       288.372      0.110113      -4.49573      -4.90088             0      -4.89791      -7.66856             0       21.5897       4.74671             0       39.0888             0             0      0.197053   9.79437e-16      0.143246        102609        103074        228799   1.79451e-15
    0.0395245       288.148       288.372      0.110245      -4.50273      -4.91365             0      -4.89138      -7.67619             0       21.6229       4.65045             0       39.2489             0             0      0.197049   9.79228e-16      0.143263        102609        103074        228784   1.79413e-15
    0.0394995       288.148       288.372      0.110377      -4.50973      -4.92641             0      -4.88484      -7.68383             0        21.656       4.55418             0       39.4089             0             0      0.197045   9.79018e-16       0.14328        102609        103074        228768   1.79374e-15
    0.0394745       288.148       288.371      0.110508      -4.51674      -4.93918             0      -4.87831      -7.69146             0       21.6892       4.45792             0        39.569             0             0      0.197042   9.78808e-16      0.143297        102609        103074        228752   1.79336e-15
    0.0394494       288.148       288.371       0.11064      -4.52374      -4.95194             0      -4.87178      -7.69909             0       21.7223       4.36166             0       39.7291             0             0      0.197038   9.78599e-16      0.143315        102609        103074        228737   1.79297e-15
    0.0394244       288.148       288.371      0.110772      -4.53074      -4.96471             0      -4.86525      -7.70672             0       21.7555       4.26539             0       39.8892             0             0      0.197034   9.78389e-16      0.143332        102609        103073        228721   1.79259e-15
    0.0393994       288.148        288.37      0.110903      -4.53774      -4.97748             0      -4.85872      -7.71435             0       21.7887       4.16913             0       40.0493             0             0       0.19703   9.78179e-16      0.143349        102609        103073        228706   1.79221e-15
    0.0393744       288.148        288.37      0.111035      -4.54474      -4.99024             0      -4.85219      -7.72198             0       21.8218       4.07287             0       40.2094             0             0      0.197026    9.7797e-16      0.143366        102609        103073        228690   1.79182e-15
    0.0393493       288.148        288.37      0.111167      -4.55175      -5.00301             0      -4.84566      -7.72961             0        21.855        3.9766             0       40.3695             0             0      0.197022    9.7776e-16      0.143383        102609        103073        228675   1.79144e-15
    0.0393243       288.148       288.369      0.111298      -4.55875      -5.01578             0      -4.83913      -7.73724             0       21.8882       3.88034             0       40.5296             0             0      0.197018    9.7755e-16        0.1434        102609        103072        228659   1.79105e-15
    0.0392993       288.148       288.369       0.11143      -4.56575      -5.02854             0       -4.8326      -7.74487             0       21.9213       3.78408             0       40.6896             0             0      0.197014    9.7734e-16      0.143417        102609        103072        228644   1.79067e-15
    0.0392743       288.148       288.369      0.111562      -4.57275      -5.04131             0      -4.82607      -7.75251             0       21.9545       3.68781             0       40.8497             0             0       0.19701   9.77131e-16      0.143434        102609        103072        228628   1.79029e-15
    0.0392492       288.148       288.368      0.111693      -4.57975      -5.05408             0      -4.81954      -7.76014             0       21.9877       3.59155             0       41.0098             0             0      0.197006   9.76921e-16      0.143451        102609        103072        228612    1.7899e-15
    0.0392242       288.148       288.368      0.111825      -4.58676      -5.06684             0        -4.813      -7.76777             0       22.0208       3.49529             0       41.1699             0             0      0.197002   9.76711e-16      0.143468        102610        103072        228597   1.78952e-15
    0.0391992       288.148       288.368      0.111957      -4.59376      -5.07961             0      -4.80647       -7.7754             0        22.054       3.39902             0         41.33             0             0      0.196998   9.76502e-16      0.143486        102610        103071        228581   1.78913e-15
    0.0391742       288.148       288.367      0.112088      -4.60076      -5.09237             0      -4.79994      -7.78303             0       22.0871       3.30276             0       41.4901             0             0      0.196994   9.76292e-16      0.143503        102610        103071        228566   1.78875e-15
    0.0391491       288.148       288.367       0.11222      -4.60776      -5.10514             0      -4.79341      -7.79066             0       22.1203        3.2065             0       41.6502             0             0       0.19699   9.76082e-16       0.14352        102610        103071        228550   1.78836e-15
    0.0391241       288.148       288.367      0.112352      -4.61476      -5.11791             0      -4.78688      -7.79829             0       22.1535       3.11023             0       41.8103             0             0      0.196987   9.75872e-16      0.143537        102610        103071        228535   1.78798e-15
    0.0390991       288.148       288.366      0.112484      -4.62177      -5.13067             0      -4.78035      -7.80592             0       22.1866       3.01397             0       41.9703             0             0      0.196983   9.75663e-16      0.143554        102610        103071        228519    1.7876e-15
    0.0390741       288.148       288.366      0.112615      -4.62877      -5.14344             0      -4.77382      -7.81355             0       22.2198       2.91771             0       42.1304             0             0      0.196979   9.75453e-16      0.143571        102610        103070        228504   1.78721e-15
     0.039049       288.148       288.366      0.112747      -4.63577      -5.15621             0      -4.76729      -7.82119             0        22.253       2.82144             0       42.2905             0             0      0.196975   9.75243e-16      0.143588        102610        103070        228488   1.78683e-15
     0.039024       288.148       288.365      0.112879      -4.64277      -5.16897             0      -4.76076      -7.82882             0       22.2861       2.72518             0       42.4506             0             0      0.196971   9.75034e-16      0.143605        102610        103070        228473   1.78644e-15
     0.038999       288.148       288.365      0.113009       -4.6495      -5.18139             0        -4.754      -7.83631             0       22.3188       2.62952             0       42.6112             0             0      0.196967   9.74838e-16       0.14362        102610        103070        228457   1.78608e-15
     0.038974       288.149       288.365      0.113102       -4.6496      -5.18539             0       -4.7418      -7.84041             0       22.3394       2.54834             0       42.7831             0             0      0.196976   9.74981e-16      0.143585        102610        103070        228452   1.78635e-15
    0.0389489       288.149       288.364      0.113195      -4.64971      -5.18939             0      -4.72961      -7.84452             0       22.3601       2.46716             0        42.955             0             0      0.196984   9.75124e-16      0.143549        102611        103069        228447   1.78661e-15
    0.0389239        288.15       288.364      0.113289      -4.64981      -5.19339             0      -4.71741      -7.84863             0       22.3808       2.38599             0       43.1269             0             0      0.196992   9.75266e-16      0.143513        102611        103069        228441   1.78687e-15
    0.0388989        288.15       288.363      0.113382      -4.64992      -5.19738             0      -4.70522      -7.85273             0       22.4014       2.30481             0       43.2988             0             0         0.197   9.75409e-16      0.143477        102611        103069        228436   1.78713e-15
    0.0388739        288.15       288.363      0.113475      -4.65002      -5.20138             0      -4.69302      -7.85684             0       22.4221       2.22363             0       43.4708             0             0      0.197008   9.75552e-16      0.143442        102611        103069        228430   1.78739e-15
    0.0388488       288.151       288.363      0.113569      -4.65013      -5.20538             0      -4.68083      -7.86095             0       22.4427       2.14245             0       43.6427             0             0      0.197017   9.75695e-16      0.143406        102611        103069        228425   1.78765e-15
    0.0388238       288.151       288.362      0.113662      -4.65023      -5.20938             0      -4.66863      -7.86505             0       22.4634       2.06128             0       43.8146             0             0      0.197025   9.75837e-16       0.14337        102611        103068        228420   1.78792e-15
    0.0387988       288.152       288.362      0.113755      -4.65034      -5.21338             0      -4.65644      -7.86916             0        22.484        1.9801             0       43.9865             0             0      0.197033    9.7598e-16      0.143334        102612        103068        228414   1.78818e-15
    0.0387738       288.152       288.362      0.113849      -4.65044      -5.21738             0      -4.64424      -7.87327             0       22.5047       1.89892             0       44.1584             0             0      0.197041   9.76123e-16      0.143299        102612        103068        228409   1.78844e-15
    0.0387487       288.153       288.361      0.113942      -4.65055      -5.22138             0      -4.63205      -7.87737             0       22.5253       1.81775             0       44.3303             0             0       0.19705   9.76266e-16      0.143263        102612        103068        228404    1.7887e-15
    0.0387237       288.153       288.361      0.114035      -4.65065      -5.22538             0      -4.61985      -7.88148             0        22.546       1.73657             0       44.5023             0             0      0.197058   9.76408e-16      0.143227        102612        103068        228398   1.78896e-15
    0.0386987       288.154       288.361      0.114129      -4.65076      -5.22938             0      -4.60766      -7.88558             0       22.5667       1.65539             0       44.6742             0             0      0.197066   9.76551e-16      0.143191        102612        103067        228393   1.78922e-15
    0.0386737       288.154        288.36      0.114222      -4.65086      -5.23338             0      -4.59546      -7.88969             0       22.5873       1.57421             0       44.8461             0             0      0.197074   9.76694e-16      0.143156        102612        103067        228387   1.78948e-15
    0.0386486       288.155        288.36      0.114315      -4.65097      -5.23738             0      -4.58326       -7.8938             0        22.608       1.49304             0        45.018             0             0      0.197082   9.76837e-16       0.14312        102613        103067        228382   1.78975e-15
    0.0386236       288.155        288.36      0.114409      -4.65107      -5.24138             0      -4.57107       -7.8979             0       22.6286       1.41186             0       45.1899             0             0      0.197091   9.76979e-16      0.143084        102613        103067        228377   1.79001e-15
    0.0385986       288.155       288.359      0.114502      -4.65118      -5.24538             0      -4.55887      -7.90201             0       22.6493       1.33068             0       45.3619             0             0      0.197099   9.77122e-16      0.143048        102613        103067        228371   1.79027e-15
    0.0385736       288.156       288.359      0.114595      -4.65128      -5.24937             0      -4.54668      -7.90612             0       22.6699        1.2495             0       45.5338             0             0      0.197107   9.77265e-16      0.143013        102613        103066        228366   1.79053e-15
    0.0385485       288.156       288.359      0.114689      -4.65139      -5.25337             0      -4.53448      -7.91022             0       22.6906       1.16833             0       45.7057             0             0      0.197115   9.77408e-16      0.142977        102613        103066        228360   1.79079e-15
    0.0385235       288.157       288.358      0.114782      -4.65149      -5.25737             0      -4.52229      -7.91433             0       22.7112       1.08715             0       45.8776             0             0      0.197124    9.7755e-16      0.142941        102613        103066        228355   1.79105e-15
    0.0384985       288.157       288.358      0.114875       -4.6516      -5.26137             0      -4.51009      -7.91844             0       22.7319       1.00597             0       46.0495             0             0      0.197132   9.77693e-16      0.142905        102613        103066        228350   1.79132e-15
    0.0384735       288.158       288.357      0.114969       -4.6517      -5.26537             0       -4.4979      -7.92254             0       22.7526      0.924794             0       46.2214             0             0       0.19714   9.77836e-16       0.14287        102614        103066        228344   1.79158e-15
    0.0384484       288.158       288.357      0.115062      -4.65181      -5.26937             0       -4.4857      -7.92665             0       22.7732      0.843616             0       46.3934             0             0      0.197148   9.77979e-16      0.142834        102614        103065        228339   1.79184e-15
    0.0384234       288.159       288.357      0.115155      -4.65191      -5.27337             0      -4.47351      -7.93076             0       22.7939      0.762439             0       46.5653             0             0      0.197156   9.78121e-16      0.142798        102614        103065        228333    1.7921e-15
    0.0383984       288.159       288.356      0.115248      -4.65202      -5.27737             0      -4.46131      -7.93486             0       22.8145      0.681262             0       46.7372             0             0      0.197165   9.78264e-16      0.142763        102614        103065        228328   1.79236e-15
    0.0383734        288.16       288.356      0.115342      -4.65212      -5.28137             0      -4.44912      -7.93897             0       22.8352      0.600084             0       46.9091             0             0      0.197173   9.78407e-16      0.142727        102614        103065        228323   1.79262e-15
    0.0383483        288.16       288.356      0.115435      -4.65223      -5.28537             0      -4.43692      -7.94307             0       22.8558      0.518907             0        47.081             0             0      0.197181    9.7855e-16      0.142691        102614        103065        228317   1.79288e-15
    0.0383233        288.16       288.355      0.115528      -4.65233      -5.28937             0      -4.42473      -7.94718             0       22.8765      0.437729             0        47.253             0             0      0.197189   9.78692e-16      0.142655        102615        103064        228312   1.79315e-15
    0.0382983       288.161       288.355      0.115622      -4.65244      -5.29337             0      -4.41253      -7.95129             0       22.8971      0.356552             0       47.4249             0             0      0.197197   9.78835e-16       0.14262        102615        103064        228307   1.79341e-15
    0.0382733       288.161       288.355      0.115715      -4.65254      -5.29737             0      -4.40033      -7.95539             0       22.9178      0.275374             0       47.5968             0             0      0.197206   9.78978e-16      0.142584        102615        103064        228301   1.79367e-15
    0.0382482       288.162       288.354      0.115808      -4.65265      -5.30136             0      -4.38814       -7.9595             0       22.9385      0.194197             0       47.7687             0             0      0.197214   9.79121e-16      0.142548        102615        103064        228296   1.79393e-15
    0.0382232       288.162       288.354      0.115902      -4.65275      -5.30536             0      -4.37594      -7.96361             0       22.9591       0.11302             0       47.9406             0             0      0.197222   9.79263e-16      0.142512        102615        103064        228290   1.79419e-15
    0.0381982       288.163       288.354      0.115995      -4.65286      -5.30936             0      -4.36375      -7.96771             0       22.9798     0.0318422             0       48.1125             0             0       0.19723   9.79406e-16      0.142477        102615        103063        228285   1.79445e-15
    0.0381732       288.163       288.353      0.116088      -4.65296      -5.31336             0      -4.35155      -7.97182             0       23.0004    -0.0493352             0       48.2845             0             0      0.197239   9.79549e-16      0.142441        102616        103063        228280   1.79472e-15
    0.0381481       288.164       288.353      0.116182      -4.65307      -5.31736             0      -4.33936      -7.97593             0       23.0211     -0.130513             0       48.4564             0             0      0.197247   9.79692e-16      0.142405        102616        103063        228274   1.79498e-15
    0.0381231       288.164       288.353      0.116275      -4.65317      -5.32136             0      -4.32716      -7.98003             0       23.0417      -0.21169             0       48.6283             0             0      0.197255   9.79834e-16      0.142369        102616        103063        228269   1.79524e-15
    0.0380981       288.164       288.352      0.116368      -4.65328      -5.32536             0      -4.31497      -7.98414             0       23.0624     -0.292867             0       48.8002             0             0      0.197263   9.79977e-16      0.142334        102616        103063        228263    1.7955e-15
    0.0380731       288.165       288.352      0.116462      -4.65338      -5.32936             0      -4.30277      -7.98825             0        23.083     -0.374045             0       48.9721             0             0      0.197271    9.8012e-16      0.142298        102616        103062        228258   1.79576e-15
     0.038048       288.165       288.351      0.116555      -4.65349      -5.33336             0      -4.29058      -7.99235             0       23.1037     -0.455222             0       49.1441             0             0       0.19728   9.80263e-16      0.142262        102616        103062        228253   1.79602e-15
     0.038023       288.166       288.351      0.116648      -4.65359      -5.33736             0      -4.27838      -7.99646             0       23.1244       -0.5364             0        49.316             0             0      0.197288   9.80405e-16      0.142226        102617        103062        228247   1.79629e-15
     0.037998       288.166       288.351      0.116738      -4.65329      -5.34053             0      -4.26572      -8.00023             0        23.143     -0.615923             0       49.4882             0             0      0.197297   9.80595e-16      0.142185        102617        103062        228243   1.79663e-15
     0.037973       288.168        288.35      0.116784      -4.64834      -5.33422             0      -4.24764      -8.00012             0       23.1384     -0.676427             0       49.6643             0             0      0.197322   9.81321e-16      0.142079        102617        103062        228247   1.79796e-15
    0.0379479       288.169        288.35      0.116829      -4.64338       -5.3279             0      -4.22957            -8             0       23.1339      -0.73693             0       49.8404             0             0      0.197346   9.82047e-16      0.141973        102617        103062        228251   1.79929e-15
    0.0379229       288.171        288.35      0.116875      -4.63842      -5.32158             0       -4.2115      -7.99989             0       23.1293     -0.797434             0       50.0165             0             0       0.19737   9.82774e-16      0.141868        102617        103061        228255   1.80062e-15
    0.0378979       288.172        288.35      0.116921      -4.63347      -5.31527             0      -4.19343      -7.99978             0       23.1247     -0.857937             0       50.1926             0             0      0.197395     9.835e-16      0.141762        102618        103061        228259   1.80195e-15
    0.0378729       288.173       288.349      0.116966      -4.62851      -5.30895             0      -4.17536      -7.99967             0       23.1202     -0.918441             0       50.3687             0             0      0.197419   9.84226e-16      0.141656        102618        103061        228264   1.80329e-15
    0.0378478       288.175       288.349      0.117012      -4.62355      -5.30263             0      -4.15729      -7.99956             0       23.1156     -0.978944             0       50.5448             0             0      0.197443   9.84952e-16       0.14155        102618        103061        228268   1.80462e-15
    0.0378228       288.176       288.349      0.117057       -4.6186      -5.29632             0      -4.13922      -7.99945             0        23.111      -1.03945             0       50.7209             0             0      0.197468   9.85679e-16      0.141444        102618        103061        228272   1.80595e-15
    0.0377978       288.177       288.348      0.117103      -4.61364         -5.29             0      -4.12114      -7.99934             0       23.1065      -1.09995             0        50.897             0             0      0.197492   9.86405e-16      0.141338        102619        103061        228276   1.80728e-15
    0.0377728       288.179       288.348      0.117149      -4.60868      -5.28368             0      -4.10307      -7.99923             0       23.1019      -1.16045             0       51.0731             0             0      0.197517   9.87131e-16      0.141232        102619        103060        228280   1.80861e-15
    0.0377477        288.18       288.348      0.117194      -4.60373      -5.27737             0        -4.085      -7.99911             0       23.0973      -1.22096             0       51.2492             0             0      0.197541   9.87858e-16      0.141127        102619        103060        228285   1.80994e-15
    0.0377227       288.182       288.348       0.11724      -4.59877      -5.27105             0      -4.06693        -7.999             0       23.0928      -1.28146             0       51.4253             0             0      0.197565   9.88584e-16      0.141021        102619        103060        228289   1.81127e-15