#           y             T         TMean   TPrime2Mean           U_x           U_y           U_z       UMean_x       UMean_y       UMean_z UPrime2Mea... UPrime2Mea... UPrime2Mea... UPrime2Mea... UPrime2Mea... UPrime2Mea...            O2           H2O          C3H8             p         pMean   pPrime2Mean           CO2
            0       287.787       288.329      0.231498       18.7904             0             0       13.7255             0             0        25.316             0             0             0             0             0      0.227509   1.17813e-16     0.0108285        102371        103200        245397   2.15856e-16
  0.000500501       287.797       288.335      0.232799       18.7931     0.0189827             0       13.7378    0.00912413             0       25.3258    -0.0278651             0     0.0673429             0             0      0.226965   1.30421e-16     0.0131951        102371        103200        245403   2.38955e-16
     0.001001       287.807        288.34      0.234104       18.7959     0.0379755             0       13.7502     0.0182501             0       25.3357    -0.0557168             0      0.134861             0             0      0.226418   1.43074e-16     0.0155724        102371        103200        245410   2.62137e-16
    0.0015015       287.843       288.352      0.237559       18.8166     0.0620341             0       13.7781     0.0282757             0        25.437    -0.0769055             0      0.289922             0             0      0.224645   1.78376e-16     0.0232833        102371        103199        245392   3.26818e-16
     0.002002        287.88       288.364      0.241028       18.8374     0.0861678             0       13.8059     0.0382963             0        25.539    -0.0981783             0      0.445407             0             0      0.222867   2.13719e-16     0.0310115        102371        103199        245374   3.91572e-16
    0.0025025       287.935       288.375      0.247979       18.9087      0.129043             0       13.8449     0.0470263             0       25.8258     -0.140401             0      0.706551             0             0      0.220096   2.59076e-16      0.043061        102371        103199        245312   4.74676e-16
     0.003003        287.99       288.385      0.254931       18.9804      0.172269             0       13.8839     0.0557299             0       26.1138     -0.183036             0       0.96845             0             0      0.217322   3.04421e-16     0.0551218        102371        103199        245250   5.57756e-16
    0.0035035       288.039       288.392      0.262209       19.1207       0.27373             0        13.941     0.0600526             0        26.599     -0.293893             0        1.3554             0             0      0.214121   3.47708e-16      0.069041        102371        103198        245109   6.37066e-16
     0.004004       288.087       288.398       0.26941       19.2605       0.37576             0       13.9981     0.0643395             0       27.0847      -0.40545             0       1.74338             0             0      0.210917   3.90987e-16     0.0829697        102371        103198        244967   7.16361e-16
    0.0045045       288.133       288.405      0.267052       19.3429      0.548183             0       14.0603       0.06418             0       27.6409     -0.603917             0        2.2599             0             0       0.20744   4.33182e-16     0.0980852        102372        103197        244744   7.93671e-16
   0.00500501       288.179       288.412      0.264605       19.4229      0.720556             0       14.1221     0.0640111             0       28.1946     -0.802723             0       2.77731             0             0      0.203968   4.75334e-16      0.113183        102372        103196        244521   8.70901e-16
   0.00550551       288.227       288.421      0.253474       19.2718      0.887986             0       14.1536     0.0629114             0       28.5051      -1.03508             0       3.38263             0             0      0.200908   5.13161e-16      0.126489        102373        103196        244270   9.40206e-16
   0.00600601       288.274        288.43      0.242347       19.1186       1.05424             0       14.1843     0.0618519             0       28.8081      -1.26656             0       3.98811             0             0       0.19786   5.50912e-16       0.13974        102373        103195        244019   1.00937e-15
   0.00650651       288.308       288.439      0.231523       18.7897       1.12357             0       14.1511     0.0640964             0       28.5016      -1.42693             0       4.60645             0             0      0.195845   5.82527e-16      0.148502        102374        103194        243721    1.0673e-15
   0.00700701       288.342       288.448      0.220741       18.4603       1.19176             0       14.1168     0.0664143             0       28.1848      -1.58547             0       5.22417             0             0      0.193843   6.14081e-16      0.157205        102374        103193        243422   1.12511e-15
   0.00750751        288.36       288.458      0.212988       18.0931       1.17923             0       14.0103     0.0739109             0       27.1461      -1.61501             0         5.799             0             0       0.19279   6.41347e-16      0.161783        102375        103193        243083   1.17507e-15
   0.00800801       288.377       288.467      0.205262       17.7257       1.16651             0       13.9029     0.0814536             0       26.1003      -1.64332             0       6.37318             0             0      0.191747   6.68512e-16      0.166317        102375        103192        242743   1.22484e-15
   0.00850851       288.379       288.476      0.199195       17.3455       1.14218             0       13.7452      0.091834             0       24.6168      -1.59573             0       6.90732             0             0      0.191326   6.89418e-16      0.168147        102376        103191        242394   1.26314e-15
   0.00900901        288.38       288.486      0.193146       16.9655        1.1178             0       13.5872      0.102195             0       23.1322      -1.54838             0       7.44118             0             0      0.190909    7.1028e-16      0.169959        102377        103190        242045   1.30136e-15
   0.00950951       288.364       288.497      0.188062       16.5956       1.09049             0        13.409      0.111522             0       21.5911      -1.51357             0       7.95968             0             0      0.190726   7.28727e-16      0.170759        102378        103189        241691   1.33516e-15
      0.01001       288.349       288.508       0.18301       16.2275       1.06283             0       13.2308      0.120818             0       20.0524      -1.47926             0       8.47774             0             0      0.190545   7.47142e-16      0.171544        102379        103188        241337    1.3689e-15
    0.0105105       288.323        288.52      0.179515       15.9538       1.01738             0        13.047      0.128583             0        18.625      -1.46985             0       8.97441             0             0      0.190524   7.63933e-16      0.171635        102380        103187        240978   1.39967e-15
     0.011011       288.297       288.532      0.176097        15.684      0.971872             0       12.8629      0.136378             0       17.1991      -1.45988             0       9.46985             0             0      0.190504   7.80582e-16      0.171723        102381        103186        240618   1.43017e-15
    0.0115115       288.271       288.543      0.176079       15.5885      0.923793             0       12.6677      0.145487             0       15.8421      -1.42455             0       9.91039             0             0      0.190505   7.90917e-16      0.171719        102381        103186        240250   1.44911e-15
     0.012012       288.245       288.555      0.176115       15.4975      0.876347             0        12.472      0.154643             0       14.4861      -1.38829             0       10.3493             0             0      0.190503   8.01104e-16      0.171727        102382        103185        239882   1.46777e-15
    0.0125125       288.218       288.565      0.178356       15.5842      0.854612             0         12.26      0.165712             0       13.1767      -1.31388             0       10.7215             0             0      0.190391   8.05251e-16      0.172215        102382        103184        239552   1.47537e-15
     0.013013       288.192       288.575      0.180554       15.6732      0.833734             0        12.048      0.176769             0       11.8722      -1.23945             0       11.0923             0             0      0.190275   8.09455e-16      0.172718        102383        103183        239222   1.48307e-15
    0.0135135       288.164       288.583      0.181117       15.8503      0.844947             0       11.8321       0.18738             0       10.7546      -1.16427             0       11.4157             0             0       0.19002   8.15785e-16      0.173828        102383        103183        238908   1.49467e-15
     0.014014       288.136       288.592      0.181613       16.0266      0.856515             0       11.6165      0.197989             0       9.64679      -1.08905             0       11.7368             0             0      0.189762   8.22409e-16       0.17495        102384        103182        238595   1.50681e-15
    0.0145145       288.114       288.599      0.179752       16.1735      0.880382             0       11.4059      0.208556             0       8.87877      -1.01233             0       11.9818             0             0      0.189416   8.39219e-16      0.176454        102384        103182        238304   1.53761e-15
     0.015015       288.092       288.607      0.177862        16.318       0.90411             0       11.1952      0.219276             0       8.12244     -0.934545             0       12.2216             0             0      0.189071   8.56097e-16       0.17795        102385        103181        238014   1.56853e-15
    0.0155155       288.076       288.613      0.175011       16.3843       0.92337             0       10.9781      0.234975             0       7.74384     -0.821938             0        12.294             0             0      0.188789   8.75156e-16      0.179179        102385        103181        237773   1.60345e-15
     0.016016       288.061        288.62      0.172198       16.4489      0.941751             0       10.7606      0.250895             0       7.37885      -0.70985             0       12.3597             0             0      0.188512   8.94076e-16      0.180384        102386        103181        237534   1.63811e-15
    0.0165165       288.047       288.624       0.17054       16.4656      0.933508             0       10.5288      0.273484             0       7.42529     -0.613474             0       12.2267             0             0      0.188401   9.08782e-16      0.180863        102386        103181        237336   1.66506e-15
     0.017017       288.033       288.629       0.16896       16.4816      0.923767             0       10.2969      0.296133             0       7.48823     -0.521966             0       12.0893             0             0      0.188296   9.23426e-16      0.181322        102386        103181        237138   1.69189e-15
    0.0175175       288.018       288.631      0.169603        16.479      0.871421             0       10.0621      0.320498             0       8.01996     -0.568779             0       11.8288             0             0      0.188328   9.36302e-16      0.181181        102386        103181        236948   1.71548e-15
     0.018018       288.003       288.634      0.170326       16.4751      0.818719             0       9.82749      0.344769             0        8.5676     -0.622434             0       11.5663             0             0      0.188364   9.49182e-16      0.181026        102386        103181        236759   1.73908e-15
    0.0185185       287.985       288.634      0.173225       16.4368      0.756495             0       9.59993       0.36655             0       9.54087     -0.859281             0       11.2508             0             0      0.188482    9.6214e-16      0.180512        102386        103181        236574   1.76282e-15
     0.019019       287.968       288.634      0.176188       16.3964      0.695774             0        9.3727       0.38826             0       10.5247      -1.10026             0       10.9339             0             0      0.188602   9.75133e-16      0.179992        102387        103181        236389   1.78663e-15
    0.0195195       287.948       288.633      0.180786       16.3032      0.673131             0        9.1541      0.408157             0       11.7746      -1.44582             0        10.579             0             0       0.18875   9.89033e-16      0.179348        102387        103181        236212   1.81209e-15
      0.02002        287.93       288.632      0.185443       16.2085       0.65227             0        8.9358      0.428121             0       13.0283      -1.78948             0       10.2228             0             0      0.188896   1.00278e-15      0.178714        102387        103182        236033   1.83728e-15
    0.0205205       287.917       288.632      0.191532       16.0782      0.674184             0       8.72456      0.449698             0       14.3689      -2.08734             0       9.83537             0             0      0.188986   1.01287e-15      0.178321        102387        103182        235810   1.85577e-15
     0.021021       287.905       288.631      0.197727       15.9483      0.697044             0       8.51394      0.471586             0       15.7019      -2.37861             0       9.44646             0             0      0.189073   1.02274e-15      0.177943        102387        103182        235587   1.87386e-15
    0.0215215       287.901       288.632      0.206336       15.8285      0.741477             0       8.31719      0.500556             0       16.8603      -2.51956             0       9.02437             0             0      0.189078   1.02762e-15      0.177922        102387        103182        235353   1.88279e-15
     0.022022       287.897       288.633      0.215098       15.7098      0.785789             0       8.12174      0.529608             0       17.9971      -2.64975             0       8.60266             0             0      0.189081   1.03237e-15      0.177909        102388        103183        235121   1.89149e-15
    0.0225225       287.901       288.636      0.227191       15.6161      0.827501             0       7.95467      0.560409             0       18.6665      -2.54638             0       8.18929             0             0      0.189039   1.03431e-15      0.178092        102388        103183        234921   1.89506e-15
     0.023023       287.906       288.639      0.239295       15.5181      0.872918             0       7.78869      0.591496             0       19.3192      -2.43644             0       7.77913             0             0      0.188996   1.03619e-15      0.178278        102389        103183        234724   1.89849e-15
    0.0235235       287.918       288.641      0.251636       15.3329       0.99516             0       7.64532      0.628504             0       19.6278      -2.19013             0       7.43547             0             0      0.188938   1.03663e-15      0.178528        102389        103184        234587    1.8993e-15
     0.024024        287.93       288.643      0.263849       15.1384       1.12527             0       7.50272      0.665825             0         19.93      -1.93982             0       7.09561             0             0      0.188881   1.03707e-15      0.178778        102390        103184        234453    1.9001e-15
    0.0245245       287.949       288.645      0.273525        14.762       1.41143             0       7.37549      0.709375             0       20.1053       -1.6102             0       6.83128             0             0      0.188823   1.03745e-15       0.17903        102390        103184        234383   1.90081e-15
     0.025025       287.969       288.646      0.283115       14.3843       1.69904             0       7.24886      0.753035             0       20.2835      -1.27655             0       6.57066             0             0      0.188766    1.0379e-15      0.179279        102391        103184        234318   1.90163e-15
    0.0255255       287.993       288.652      0.291075       13.9827       2.01406             0       7.13361      0.798776             0       20.5163      -0.86623             0       6.38056             0             0      0.188718   1.03958e-15      0.179487        102391        103183        234343    1.9047e-15
     0.026026       288.016       288.657      0.298888       13.5913       2.32135             0       7.01843      0.845035             0       20.7691     -0.462527             0        6.1963             0             0       0.18867   1.04141e-15      0.179694        102391        103183        234376   1.90805e-15
    0.0265265       288.043       288.663      0.304019       13.3853       2.48762             0       6.90469      0.900739             0       21.3861     -0.179376             0       6.11878             0             0       0.18863   1.04606e-15      0.179869        102392        103183        234523   1.91657e-15
     0.027027        288.07       288.668      0.308849       13.1901       2.64519             0       6.79167      0.956636             0       22.0167     0.0935336             0       6.04953             0             0       0.18859   1.05125e-15      0.180044        102392        103183        234677   1.92609e-15
    0.0275275       288.091        288.67      0.308384       13.1849       2.65062             0       6.69125       1.01592             0       22.8835      0.187014             0       6.12529             0             0       0.18855   1.06601e-15      0.180219        102392        103182        234929   1.95313e-15
     0.028028       288.111       288.671      0.307548       13.1852       2.65236             0        6.5932       1.07479             0       23.7313      0.276663             0       6.20838             0             0      0.188511   1.08086e-15      0.180387        102392        103182        235186   1.98033e-15
    0.0285285       288.111       288.667      0.300446       13.2771       2.59201             0       6.53503       1.12678             0       24.2593      0.301718             0        6.4151             0             0      0.188493   1.09714e-15      0.180464        102391        103181        235524   2.01016e-15
     0.029029       288.109       288.663      0.293155       13.3676       2.53299             0       6.48029       1.17794             0       24.7395      0.330519             0       6.62721             0             0      0.188479   1.11302e-15      0.180525        102391        103181        235869   2.03925e-15
    0.0295295       288.083       288.656       0.28277       13.4351        2.4953             0       6.48134        1.2156             0       24.4436      0.420164             0       6.92695             0             0      0.188528   1.12236e-15      0.180313        102391        103180        236316   2.05638e-15
      0.03003       288.054       288.649      0.272348       13.4952       2.46234             0       6.48541       1.25232             0       24.0955      0.514649             0       7.22985             0             0      0.188584   1.13302e-15      0.180071        102390        103179        236768    2.0759e-15
    0.0305305       287.998       288.644      0.261335       13.4383       2.50345             0       6.53696       1.27426             0       22.9305      0.684964             0       7.58206             0             0      0.188745   1.16418e-15      0.179369        102390        103178        237303     2.133e-15
     0.031031       287.942       288.639      0.250189       13.3793       2.54716             0       6.59015       1.29535             0       21.7328      0.854636             0       7.93544             0             0      0.188906   1.19714e-15      0.178672        102389        103177        237844   2.19339e-15
    0.0315315       287.892       288.637       0.23703       13.2872       2.63039             0       6.66826       1.30365             0       20.0402       1.01459             0       8.30653             0             0      0.189049    1.2572e-15      0.178046        102388        103176        238469   2.30342e-15
     0.032032       287.845       288.636      0.223768       13.2046       2.71083             0       6.74671       1.31136             0       18.3418       1.16741             0       8.67721             0             0      0.189182   1.31674e-15      0.177468        102387        103176        239099   2.41252e-15
    0.0325325       287.836       288.638      0.208997       13.2621       2.75059             0       6.83015       1.31045             0       16.5605       1.21579             0       9.04202             0             0      0.189156   1.36874e-15      0.177584        102386        103175        239784   2.50779e-15
     0.033033        287.83        288.64      0.194348       13.3233       2.78803             0       6.91335       1.30929             0        14.794       1.25476             0        9.4056             0             0      0.189103   1.42145e-15      0.177814        102385        103174        240467   2.60436e-15
    0.0335335       287.868       288.643      0.181425       13.4362       2.79258             0       6.99316       1.30447             0       13.2356       1.16041             0       9.75165             0             0      0.188678   1.48422e-15      0.179659        102383        103174        241118   2.71938e-15
     0.034034       287.908       288.645      0.168739       13.5371       2.79989             0       7.07282       1.29953             0       11.7007       1.05779             0        10.096             0             0      0.188194   1.55007e-15      0.181765        102381        103173        241768   2.84002e-15
    0.0345345       287.981       288.648      0.159292       13.4735       2.84509             0       7.15029       1.29278             0       10.4866      0.841704             0       10.4166             0             0      0.186889   1.65804e-15       0.18744        102380        103173        242408   3.03785e-15
     0.035035       288.053        288.65      0.150045       13.4021       2.89165             0       7.22808       1.28595             0       9.29185      0.616915             0       10.7338             0             0      0.185577   1.76443e-15      0.193144        102378        103173        243045   3.23277e-15
    0.0355355       288.108       288.651      0.143466       13.2266       2.95614             0        7.3102        1.2781             0       8.35268      0.276478             0       11.0049             0             0      0.184181   1.84973e-15      0.199215        102375        103173        243658   3.38905e-15
     0.036036        288.16       288.652      0.137006       13.0451       3.02057             0       7.39254       1.27013             0       7.43329    -0.0734883             0       11.2677             0             0      0.182831    1.9307e-15      0.205082        102373        103172        244263    3.5374e-15
    0.0365365       288.179       288.652      0.132078       12.7842       3.08403             0       7.47776       1.26064             0        6.7687     -0.546267             0       11.4226             0             0      0.182085   1.95578e-15      0.208328        102371        103172        244766   3.58336e-15
     0.037037       288.197       288.652       0.12722       12.4998       3.14795             0       7.56224       1.25072             0       6.13942      -1.02569             0       11.5644             0             0      0.181356   1.97948e-15      0.211494        102368        103172        245263   3.62678e-15
    0.0375375       288.207       288.653      0.123234       11.9197       3.21761             0       7.63734       1.23547             0         5.952      -1.58824             0       11.5416             0             0      0.180857   1.98584e-15      0.213664        102366        103173        245688   3.63842e-15
     0.038038       288.217       288.654        0.1193       11.3156       3.28529             0       7.71126       1.21975             0       5.81257      -2.15182             0        11.504             0             0      0.180367   1.99229e-15      0.215796        102363        103173        246105   3.65025e-15
    0.0385385       288.229       288.655      0.115994       10.4184       3.32877             0       7.77064       1.19845             0       6.25671      -2.72801             0       11.2886             0             0      0.179983   2.00003e-15      0.217467        102361        103174        246433   3.66444e-15
     0.039039       288.242       288.657      0.112727       9.51042       3.37004             0       7.82875       1.17669             0       6.75294      -3.29889             0        11.058             0             0      0.179604   2.00815e-15      0.219114        102359        103175        246748   3.67931e-15
    0.0395395       288.262       288.657      0.109924       8.47506       3.38529             0       7.87195       1.14968             0       7.86489      -3.80702             0       10.6492             0             0      0.179291   2.02073e-15      0.220473        102358        103175        246930   3.70235e-15
      0.04004       288.282       288.658      0.107171       7.42573       3.39749             0       7.91375       1.12218             0        9.0265      -4.30302             0       10.2271             0             0      0.178989   2.03321e-15      0.221788        102356        103176        247105   3.72523e-15
    0.0405405       288.305       288.657      0.104996       6.21566       3.37466             0       7.93948       1.08901             0       10.7593      -4.65939             0       9.65153             0             0      0.178804   2.04464e-15       0.22259        102356        103178        247203   3.74617e-15
     0.041041       288.328       288.656      0.102848       4.98923       3.34842             0        7.9635       1.05533             0       12.5229       -4.9983             0       9.06614             0             0      0.178636   2.05559e-15      0.223322        102355        103179        247295   3.76623e-15
    0.0415415       288.339       288.652      0.101014       3.57964       3.28407             0       7.96832       1.01589             0       14.6309      -5.14172             0       8.37129             0             0      0.178648    2.0612e-15      0.223268        102356        103181        247321    3.7765e-15
     0.042042       288.349       288.648     0.0992217        2.1756       3.21584             0       7.97074      0.975792             0       16.7343      -5.26709             0        7.6722             0             0      0.178675   2.06661e-15      0.223153        102356        103182        247339   3.78642e-15
    0.0425425       288.345       288.642     0.0978757      0.832027       3.10537             0       7.94711      0.928514             0       18.7882       -5.1957             0       6.92687             0             0      0.178855   2.06993e-15      0.222369        102358        103184        247260   3.79251e-15
     0.043043       288.339       288.636     0.0966207      -0.48762       2.99028             0       7.92123      0.880613             0       20.8091      -5.11042             0       6.18384             0             0      0.179046   2.07308e-15       0.22154        102359        103185        247182   3.79826e-15
    0.0435435       288.319       288.629     0.0963333      -1.55302       2.82623             0       7.87154       0.82609             0        22.479       -4.8774             0       5.46525             0             0      0.179345   2.07434e-15      0.220239        102362        103186        247111   3.80058e-15
     0.044044       288.297       288.622     0.0961366      -2.60049       2.65914             0       7.82057      0.770947             0        24.106      -4.63818             0       4.75235             0             0      0.179671   2.07412e-15       0.21882        102364        103188        247043   3.80018e-15
    0.0445445       288.257       288.616     0.0968807       -3.4622       2.46069             0       7.75644      0.709388             0        25.288      -4.33466             0       4.09852             0             0      0.180277   2.05856e-15      0.216188        102366        103189        247015   3.77167e-15
     0.045045       288.213       288.609     0.0976511      -4.30881       2.26091             0         7.691      0.647171             0       26.4306         -4.03             0       3.45118             0             0      0.180989   2.03778e-15      0.213091        102369        103190        246984   3.73359e-15
    0.0455455       288.142       288.605     0.0986885      -5.00276       2.04763             0       7.61234      0.578286             0       27.1746       -3.7139             0       2.86947             0             0      0.182781   1.96417e-15      0.205302        102371        103191        246915   3.59873e-15