#           y             T         TMean   TPrime2Mean           U_x           U_y           U_z       UMean_x       UMean_y       UMean_z UPrime2Mea... UPrime2Mea... UPrime2Mea... UPrime2Mea... UPrime2Mea... UPrime2Mea...            O2           H2O          C3H8             p         pMean   pPrime2Mean           CO2
  1.11022e-19       287.996       288.026     0.0854391       25.2177  -1.59862e-15             0       22.4606  -3.63404e-16             0       10.5613   1.95178e-17             0    1.0469e-16             0             0      0.229999   2.19469e-14   5.68607e-06        102358        103131        202444   4.02108e-14
  0.000500501       287.998       288.027     0.0855957       25.1964      0.137276             0       22.4618     0.0137841             0       10.5827     -0.142976             0     0.0309604             0             0      0.229994   1.38557e-13   2.50817e-05        102357        103131        202367   2.53862e-13
     0.001001       287.999       288.028     0.0857738       25.1749      0.274606             0        22.463     0.0275677             0       10.6042     -0.285963             0     0.0620494             0             0       0.22999   2.59397e-13   4.49306e-05        102357        103131        202290   4.75263e-13
    0.0015015       288.038       288.038     0.0966667       25.1074      0.439114             0       22.4662     0.0411376             0       10.6635     -0.434432             0      0.157325             0             0      0.229933   2.49097e-12   0.000290926        102355        103130        202134   4.56391e-12
     0.002002       288.078       288.049      0.109466       25.0398       0.60379             0       22.4694     0.0546996             0       10.7231     -0.582969             0      0.253036             0             0      0.229875   4.80879e-12   0.000542236        102354        103130        201979    8.8106e-12
    0.0025025       288.545       288.119      0.596861        24.941      0.810231             0       22.4759     0.0662736             0       10.8824     -0.748273             0      0.456958             0             0      0.229513   2.86044e-11    0.00211698        102352        103130        201789   5.24085e-11
     0.003003       289.026       288.189       1.10806       24.8415       1.01751             0       22.4826     0.0778453             0       11.0423     -0.913923             0      0.662149             0             0      0.229146   5.30269e-11    0.00371263        102351        103129        201599   9.71552e-11
    0.0035035       291.762       288.403       5.56269       24.6403       1.36411             0       22.5061     0.0890208             0       11.3205      -1.13703             0       1.07759             0             0      0.227982   1.81327e-10    0.00877315        102348        103128        201455   3.32224e-10
     0.004004       294.529       288.618       10.1006       24.4409       1.71198             0         22.53      0.100166             0       11.5997      -1.36113             0       1.49506             0             0      0.226815   3.10633e-10     0.0138499        102345        103128        201311   5.69138e-10
    0.0045045       301.069       288.969       24.9649       24.4843       2.21781             0       22.5925      0.107541             0       12.0104      -1.70906             0       2.16316             0             0      0.225184   5.64792e-10     0.0209394        102343        103127        201269    1.0348e-09
   0.00500501       307.631        289.32       39.9513       24.5312       2.72434             0       22.6556      0.114953             0       12.4215      -2.05738             0       2.83148             0             0      0.223556   8.19363e-10     0.0280194        102340        103125        201228   1.50123e-09
   0.00550551       316.383       289.705       67.0313       24.9169       3.30137             0       22.7774      0.126079             0       12.8598      -2.44453             0       3.52193             0             0      0.222143   1.11483e-09     0.0341602        102335        103124        201208   2.04257e-09
   0.00600601       325.163        290.09       94.1433       25.3003       3.87708             0       22.8979      0.137212             0       13.2959      -2.83165             0       4.21087             0             0      0.220729   1.41209e-09     0.0403072        102330        103123        201186   2.58721e-09
   0.00650651       336.255       290.413       123.897       25.4922       4.34478             0       22.9101      0.148805             0       13.5417      -3.21638             0       4.77462             0             0      0.219197   1.85744e-09     0.0469688        102326        103121        201050   3.40317e-09
   0.00700701       347.338       290.734       153.513       25.6817       4.80488             0       22.9175      0.160457             0       13.7819       -3.5979             0       5.33633             0             0      0.217658   2.32652e-09     0.0536615        102322        103120        200913   4.26261e-09
   0.00750751       357.748       290.946       173.488       25.7002       4.73031             0       22.5878      0.176336             0       13.6305       -3.7527             0        5.7546             0             0      0.215615   4.46709e-09      0.062544        102327        103119        200697   8.18454e-09
   0.00800801       368.164       291.157        193.38       25.7178       4.64895             0       22.2495      0.192484             0         13.47      -3.90153             0       6.17148             0             0      0.213552   6.73203e-09     0.0715112        102331        103117        200480   1.23343e-08
   0.00850851       378.949       291.298       208.157       25.6809       4.15087             0       21.3795      0.225126             0       12.7542      -3.68267             0       6.50239             0             0      0.210294    1.6646e-08     0.0856777        102333        103116        200145   3.04986e-08
   0.00900901       389.795       291.438       222.981       25.6427       3.64883             0       20.5009      0.257717             0       12.0298       -3.4586             0       6.82739             0             0      0.206998   2.69817e-08      0.100009        102334        103115        199805   4.94355e-08
   0.00950951       403.976       291.526       240.353        25.536       2.93147             0       19.1592       0.28747             0       10.8374      -2.95038             0       6.83066             0             0      0.201641   6.03198e-08        0.1233        102333        103115        199251   1.10517e-07
      0.01001       418.088       291.613       257.712       25.4177       2.21237             0       17.8175      0.316541             0       9.65338      -2.44437             0       6.82788             0             0      0.196253   9.44471e-08      0.146726        102333        103115        198695   1.73045e-07
    0.0105105       428.787       291.625       274.471       24.7267       1.40839             0       16.4741      0.312195             0       8.87954      -2.04641             0       6.52914             0             0      0.189351   1.67245e-07      0.176735        102340        103115        198005   3.06423e-07
     0.011011        439.36       291.637        291.24       24.0201      0.621741             0       15.1418      0.306629             0         8.136      -1.66425             0       6.23787             0             0      0.182475   2.40694e-07       0.20663        102347        103115        197316   4.40996e-07
    0.0115115       444.364        291.61       308.439       22.6194      0.605499             0       14.3023      0.246857             0       8.73942      -1.98402             0       6.27942             0             0      0.176774   3.43102e-07      0.231414        102350        103115        196669   6.28628e-07
     0.012012       449.256       291.582       325.229       21.2169      0.606238             0       13.4756      0.187198             0       9.37515       -2.3172             0        6.3336             0             0      0.171097   4.44717e-07      0.256094        102353        103115        196022   8.14805e-07
    0.0125125       449.579       291.487       325.415        19.735       1.29754             0       13.1755      0.132088             0       11.3252      -3.19584             0       6.90161             0             0      0.166389   5.14044e-07      0.276566        102356        103114        195361   9.41825e-07
     0.013013       449.814       291.389       324.793       18.2635       1.98084             0       12.8838     0.0768385             0       13.3071      -4.07849             0       7.48105             0             0      0.161682   5.80378e-07      0.297031        102359        103113        194698   1.06336e-06
    0.0135135       446.812       291.181       293.937       17.1809       2.36447             0       12.9023     0.0163726             0       16.4852      -5.11141             0       8.48827             0             0      0.157029   5.34577e-07      0.317262        102362        103112        193961   9.79446e-07
     0.014014       443.741        290.97       262.682       16.1121       2.73989             0       12.9285    -0.0438379             0       19.6776       -6.1425             0       9.50687             0             0      0.152373   4.87196e-07      0.337503        102365        103111        193224   8.92634e-07
    0.0145145       438.241       290.668       217.564       15.5242       2.83012             0       13.2241    -0.0951867             0       23.3643      -7.10988             0       10.9205             0             0      0.147632   3.84946e-07       0.35812        102366        103109        192486   7.05293e-07
     0.015015        432.72       290.366       172.698       14.9531       2.91458             0       13.5267     -0.146388             0       27.0395      -8.07007             0       12.3436             0             0      0.142784   2.84097e-07      0.379199        102367        103106        191750   5.20518e-07
    0.0155155       426.491       290.036       135.977       14.9276       2.81223             0       14.0587     -0.192809             0       30.3423      -8.79785             0       14.0733             0             0      0.134494   2.28539e-07      0.415242        102371        103104        191101   4.18726e-07
     0.016016       420.299       289.709        99.901       14.9176        2.7071             0       14.5983     -0.238499             0       33.6405      -9.50675             0       15.8078             0             0      0.126171   1.73808e-07      0.451431        102374        103101        190463   3.18449e-07
    0.0165165       415.202        289.48       83.3128       15.3731       2.51792             0       15.3663     -0.262098             0        36.799      -9.64471             0       17.6924             0             0      0.116838   1.44093e-07      0.492009        102376        103097        190184   2.64004e-07
     0.017017        409.91       289.254        67.034       15.8124       2.32121             0       16.1433     -0.283799             0       39.9574      -9.73402             0       19.5779             0             0      0.107798   1.14393e-07      0.531312        102379        103094        189925    2.0959e-07
    0.0175175       399.083       289.138       59.5477        15.793       1.91059             0       17.1752     -0.251581             0       43.1154      -8.44133             0       21.4906             0             0      0.107088   8.51611e-08      0.534398        102382        103090        190274   1.56031e-07
     0.018018       387.955       289.022       51.9583       15.7627       1.48763             0        18.202     -0.217842             0       46.2499      -7.11152             0       23.4042             0             0      0.106944   5.62799e-08      0.535026        102384        103086        190649   1.03115e-07
    0.0185185       368.744         288.9       41.6066       15.4425      0.734415             0       19.0913     -0.143359             0       48.7559      -4.78782             0       25.3396             0             0      0.121936   3.67988e-08      0.469843        102385        103081        191716   6.74223e-08
     0.019019        349.55       288.777       31.2421       15.1506    -0.0218705             0       19.9639    -0.0700858             0       51.2078      -2.47198             0       27.2766             0             0      0.137093   1.77753e-08      0.403942        102386        103076        192810   3.25676e-08
    0.0195195         330.8       288.595       20.5558       15.5737      -0.85592             0        20.413    -0.0274501             0       52.2885     -0.355044             0       29.2553             0             0      0.156435   1.03349e-08      0.319848        102384        103071        194565   1.89355e-08
      0.02002       312.433       288.415       10.1074       16.0249      -1.68294             0       20.8502     0.0141627             0       53.2865       1.74109             0       31.2451             0             0      0.175352    3.1496e-09        0.2376        102383        103066        196344   5.77065e-09
    0.0205205       303.242       288.288       5.37184       17.1516      -2.34114             0       21.0016     0.0312254             0       52.2982        3.3379             0       33.5019             0             0      0.184084   2.08393e-09      0.199635        102380        103061        198715   3.81815e-09
     0.021021       294.371       288.164      0.821554       18.2833       -2.9871             0       21.1436     0.0473888             0       51.2331       4.91296             0       35.7686             0             0      0.192558    1.0592e-09       0.16279        102378        103056        201100   1.94066e-09
    0.0215215       292.819       288.137      0.497317       19.5304      -3.35404             0       21.0734     0.0430389             0        48.417       5.99176             0       38.2625             0             0      0.195155   9.68385e-10      0.151498        102377        103050        203813   1.77426e-09
     0.022022       291.312       288.111      0.186381       20.7667      -3.70861             0       20.9924      0.037296             0       45.5629       7.05168             0       40.7615             0             0      0.197818   8.73585e-10      0.139922        102376        103045        206540   1.60057e-09
    0.0225225       290.784       288.117      0.164427       21.7674      -3.79456             0       20.6774    0.00128919             0       41.8831       7.70155             0       43.3717             0             0      0.201903   6.92278e-10      0.122161        102380        103039        209553   1.26838e-09
     0.023023       290.254       288.125        0.1431        22.758      -3.87872             0       20.3501    -0.0366522             0       38.2337       8.33278             0       45.9868             0             0      0.206015   5.11461e-10      0.104284        102384        103033        212584   9.37092e-10
    0.0235235       289.651       288.143      0.134758       23.5372      -3.92582             0       19.7687     -0.114714             0       35.2151       8.57772             0       48.7043             0             0       0.21068   3.40801e-10      0.083998        102391        103028        215995    6.2441e-10
     0.024024        289.06       288.161      0.126703       24.2888      -3.97281             0       19.1842     -0.194698             0       32.2854       8.81776             0       51.4286             0             0      0.215246   1.75298e-10     0.0641483        102398        103022        219429   3.21178e-10
    0.0245245       288.716       288.183       0.12435       24.4931      -4.01762             0       18.5384     -0.312784             0       31.1171       8.96077             0       54.2885             0             0      0.217821   1.12083e-10     0.0529512        102407        103017        223302   2.05356e-10
     0.025025       288.382       288.205      0.122119       24.6526      -4.05243             0       17.8988     -0.431641             0       29.9888       9.11647             0       57.1567             0             0      0.220279   5.10459e-11     0.0422672        102416        103011        227197   9.35256e-11
    0.0255255       288.214       288.223      0.122211       23.9604      -3.89735             0       17.3756     -0.565158             0       29.6206       9.51311             0       60.1807             0             0      0.220493   3.13947e-11     0.0413326        102424        103006        231499    5.7521e-11
     0.026026       288.052       288.241      0.122273       23.2562       -3.7432             0       16.8541     -0.699334             0       29.2312       9.90996             0       63.2048             0             0      0.220564   1.25124e-11     0.0410278        102432        103000        235814    2.2925e-11
    0.0265265       287.989       288.251      0.121799       22.3347       -3.6061             0       16.3622     -0.845523             0       28.4573       10.3107             0       66.2284             0             0      0.217993    7.6461e-12     0.0522034        102437        102993        240355   1.40091e-11
     0.027027       287.929       288.261      0.121268       21.4456      -3.50218             0       15.8646     -0.992769             0       27.6683       10.6968             0       69.2448             0             0      0.215371   2.96891e-12     0.0636063        102441        102986        244898    5.4396e-12
    0.0275275       287.914       288.268      0.119727       21.1232      -3.97956             0       15.2679      -1.15853             0        26.617       10.8256             0       72.1359             0             0      0.211832   1.60441e-12     0.0789928        102442        102979        249485   2.93959e-12
     0.028028       287.899       288.275      0.118212        20.827      -4.48124             0       14.6651      -1.32515             0       25.5689        10.943             0       75.0073             0             0      0.208384   3.08071e-13     0.0939807        102442        102971        254058   5.64444e-13
    0.0285285       287.881        288.28      0.117117       20.9708       -5.3927             0       13.9607      -1.50624             0       24.5734        10.868             0       77.5482             0             0      0.206483   1.60673e-13      0.102249        102439        102964        258404   2.94383e-13
     0.029029       287.863       288.285      0.116106       21.0976      -6.30124             0       13.2501      -1.68776             0       23.6027       10.7895             0       80.0552             0             0       0.20466   2.12492e-14      0.110174        102436        102956        262705   3.89325e-14
    0.0295295       287.835       288.285      0.116465       20.9494      -7.16265             0       12.4404       -1.8761             0       23.0355       10.6551             0        82.013             0             0      0.204121   1.13333e-14      0.112519        102430        102949        266283   2.07647e-14
      0.03003       287.808       288.285       0.11685       20.7671      -8.01568             0       11.6258      -2.06475             0       22.5174       10.5282             0       83.9239             0             0      0.203628   1.97892e-15      0.114662        102424        102941        269790   3.62575e-15
    0.0305305       287.787       288.283      0.117652       20.0521      -8.73737             0       10.7337      -2.25839             0       22.7704       10.5204             0       85.1002             0             0      0.203865   1.42122e-15       0.11363        102416        102935        272182   2.60394e-15
     0.031031       287.766       288.281        0.1184       19.3106      -9.45276             0       9.83785      -2.45157             0       23.0825       10.5276             0       86.2255             0             0      0.204151   8.93883e-16      0.112388        102408        102928        274495   1.63776e-15
    0.0315315        287.75       288.279      0.118321        18.168      -10.0728             0       8.88695      -2.63765             0        24.288       10.7611             0       86.5784             0             0      0.205165   8.25898e-16       0.10798        102400        102923        275605    1.5132e-15
     0.032032       287.733       288.277      0.118218       17.0107      -10.6924             0        7.9344      -2.82305             0       25.5316       11.0038             0       86.8881             0             0      0.206262   7.60396e-16       0.10321        102392        102917        276650   1.39319e-15
    0.0325325        287.72       288.275      0.117773       15.6389      -11.3065             0       6.95776      -2.99843             0       27.3328       11.3829             0       86.5672             0             0      0.208579   7.31206e-16     0.0931329        102384        102913        276719    1.3397e-15
     0.033033       287.707       288.273      0.117354       14.2505      -11.9165             0       5.98132      -3.17289             0        29.119       11.7575             0       86.2143             0             0       0.21093   7.02803e-16     0.0829135        102376        102909        276755   1.28767e-15
    0.0335335       287.707       288.271      0.117326       12.6287      -12.4693             0        5.0079      -3.33444             0       30.6931       12.0673             0       85.4088             0             0      0.213745   6.85548e-16     0.0706739        102367        102906        276320   1.25605e-15
     0.034034       287.709       288.269      0.117333        10.986      -13.0085             0       4.03515      -3.49499             0       32.1978       12.3557             0       84.5748             0             0      0.216477    6.6872e-16     0.0587938        102358        102903        275880   1.22522e-15
    0.0345345       287.737       288.269      0.117826       9.05555      -13.3622             0       3.07162       -3.6417             0       32.7508       12.3514             0       83.3507             0             0      0.218077    6.5775e-16     0.0518403        102349        102902        275365   1.20512e-15
     0.035035       287.765       288.269      0.118348       7.11588       -13.701             0       2.10822      -3.78753             0       33.2164       12.3142             0       82.0941             0             0      0.219602   6.47103e-16     0.0452108        102340        102900        274852   1.18561e-15
    0.0355355       287.797       288.271      0.119264       5.05317      -13.8417             0       1.14656      -3.92181             0       32.5201       11.8386             0       80.4064             0             0      0.220136   6.40763e-16     0.0428866        102333        102900        274377     1.174e-15
     0.036036       287.828       288.273      0.120225       2.99753      -13.9701             0       0.18452      -4.05534             0       31.7781       11.3316             0       78.6801             0             0      0.220643   6.34679e-16     0.0406845        102327        102900        273893   1.16285e-15
    0.0365365       287.843       288.275      0.121772       1.03285      -13.9386             0     -0.782372      -4.17923             0       30.4464       10.4205             0       76.4561             0             0      0.220787   6.31907e-16     0.0400552        102323        102901        273293   1.15777e-15
     0.037037       287.858       288.277        0.1234      -0.91376      -13.8976             0      -1.74935      -4.30161             0       29.1397       9.50088             0       74.1931             0             0      0.220921   6.29172e-16     0.0394726        102319        102903        272663   1.15276e-15
    0.0375375       287.862       288.278      0.126037      -2.63432      -13.7376             0      -2.71746      -4.40515             0       28.1454       8.47325             0       71.4437             0             0      0.220921    6.2689e-16     0.0394729        102318        102906        271655   1.14858e-15
     0.038038       287.866        288.28      0.128745      -4.33227      -13.5729             0      -3.68404      -4.50611             0         27.23       7.47157             0       68.6617             0             0      0.220915   6.24697e-16     0.0395012        102317        102910        270602   1.14456e-15
    0.0385385       287.861       288.279      0.132325      -5.75519      -13.3529             0      -4.63216      -4.57571             0       27.2735       6.78524             0       65.4832             0             0       0.22083   6.23571e-16     0.0398711        102320        102915        269007    1.1425e-15
     0.039039       287.856       288.279      0.135981       -7.1573      -13.1323             0      -5.57551       -4.6418             0       27.4164       6.15088             0       62.2848             0             0      0.220734   6.22655e-16     0.0402886        102323        102920        267369   1.14082e-15
    0.0395395       287.841       288.277      0.140541      -8.31329      -12.9036             0      -6.46264      -4.66637             0       28.7342       6.13086             0       58.8506             0             0      0.220508   6.24224e-16     0.0412706        102328        102928        265221   1.14369e-15
      0.04004       287.825       288.274      0.145021      -9.45261      -12.6765             0      -7.34069      -4.68685             0       30.1426       6.16616             0        55.408             0             0      0.220258   6.26172e-16     0.0423546        102334        102935        263040   1.14726e-15
    0.0405405       287.797       288.271      0.148573      -10.4002      -12.4674             0      -8.11444      -4.66028             0       32.5921       6.83763             0       51.8676             0             0      0.219739   6.32484e-16     0.0446122        102341        102944        260483   1.15883e-15
     0.041041       287.768       288.268       0.15183      -11.3343      -12.2597             0      -8.87512      -4.62917             0       35.0949       7.54573             0       48.3252             0             0      0.219168   6.39346e-16     0.0470966        102349        102953        257911    1.1714e-15
    0.0415415       287.723       288.268      0.151782      -12.1167       -12.066             0       -9.4895      -4.54721             0       38.1935       8.66372             0       44.7599             0             0      0.218012   6.52366e-16     0.0521212        102359        102963        255180   1.19526e-15
     0.042042       287.678       288.268      0.151643      -12.8846      -11.8701             0      -10.0887      -4.46055             0       41.2958       9.78969             0       41.1998             0             0      0.216759   6.65749e-16     0.0575679        102370        102973        252456   1.21978e-15
    0.0425425       287.624        288.27      0.150505      -13.4945      -11.6507             0      -10.5218      -4.32261             0        44.439       11.0027             0       37.6966             0             0      0.214448   6.83075e-16     0.0676168        102382        102983        249808   1.25152e-15
     0.043043       287.571       288.272       0.14946      -14.0834      -11.4233             0      -10.9397      -4.17959             0       47.5725        12.197             0       34.2084             0             0      0.212023   7.00086e-16     0.0781627        102394        102992        247184   1.28269e-15
    0.0435435       287.537       288.273      0.149406      -14.4486      -11.1102             0      -11.1957      -3.98259             0       50.6037        13.192             0       30.8789             0             0      0.208382   7.13744e-16     0.0939891        102407        103002        244813   1.30771e-15
     0.044044       287.506       288.273      0.149271      -14.7839      -10.7846             0      -11.4369      -3.78105             0       53.6689       14.1587             0       27.5706             0             0       0.20466   7.26774e-16      0.110174        102420        103011        242484   1.33158e-15
    0.0445445       287.516        288.27      0.148293      -14.8103      -10.3299             0      -11.5253      -3.53246             0       57.0863       14.8321             0       24.4825             0             0      0.200084   7.33287e-16      0.130068        102434        103019        240582   1.34352e-15
     0.045045       287.529       288.267      0.147263         -14.8      -9.85865             0      -11.5999      -3.28034             0       60.6161       15.4692             0       21.4135             0             0      0.195557   7.39444e-16      0.149753        102448        103028        238727    1.3548e-15
    0.0455455        287.57        288.26      0.145706      -14.4205      -9.22071             0      -11.5356      -2.99254             0       65.2831       15.7394             0       18.5375             0             0      0.191514   7.41986e-16       0.16733        102461        103036        237344   1.35946e-15