#           y             T         TMean   TPrime2Mean           U_x           U_y           U_z       UMean_x       UMean_y       UMean_z UPrime2Mea... UPrime2Mea... UPrime2Mea... UPrime2Mea... UPrime2Mea... UPrime2Mea...            O2           H2O          C3H8             p         pMean   pPrime2Mean           CO2
  1.11022e-19       288.364       288.563      0.097372       11.8545  -5.24679e-17             0         12.74   2.94498e-19             0       35.3293   9.94703e-19             0    6.5139e-18             0             0      0.190446   2.39202e-15      0.171973        102564        103156        285625   4.38263e-15
  0.000500501       288.421        288.57     0.0961294       11.7135     -0.236531             0       12.7014    0.00132763             0       34.8385    0.00448423             0     0.0293654             0             0      0.191315    2.3709e-15      0.168196        102564        103156        285630   4.34392e-15
     0.001001       288.479       288.576     0.0948901       11.5724     -0.473087             0       12.6627     0.0026557             0       34.3461    0.00905296             0     0.0588141             0             0      0.192183   2.34975e-15      0.164422        102564        103156        285635   4.30518e-15
    0.0015015       288.657       288.586     0.0953512       11.4159     -0.722071             0        12.573    0.00420388             0       33.0114     0.0557893             0      0.129839             0             0      0.192542   2.31933e-15      0.162859        102564        103156        285627   4.24944e-15
     0.002002       288.835       288.596     0.0958328         11.26     -0.971041             0       12.4832    0.00575019             0       31.6759      0.102591             0      0.201052             0             0      0.192896   2.28897e-15      0.161324        102563        103156        285619   4.19382e-15
    0.0025025       289.014       288.601      0.101444       11.2759      -1.21624             0       12.3969    0.00683199             0       30.1268      0.165691             0      0.319204             0             0       0.19159   2.27664e-15      0.166998        102563        103156        285594   4.17122e-15
     0.003003       289.191       288.605      0.107064        11.292      -1.46133             0       12.3108    0.00790634             0       28.5797       0.22866             0      0.437622             0             0      0.190286   2.26433e-15      0.172669        102562        103156        285569   4.14868e-15
    0.0035035       289.262       288.607      0.114294       11.3316      -1.68754             0        12.254    0.00774736             0       27.3529      0.269927             0      0.600164             0             0      0.189099   2.25777e-15      0.177828        102562        103156        285566   4.13665e-15
     0.004004       289.332       288.609      0.121493       11.3704      -1.91365             0       12.1973     0.0075813             0       26.1281      0.311024             0      0.763006             0             0       0.18792   2.25122e-15      0.182958        102561        103155        285562   4.12465e-15
    0.0045045       289.346       288.613      0.124872       11.3032      -2.12827             0       12.1568    0.00653817             0       25.1576      0.331123             0      0.963129             0             0      0.187569   2.24585e-15      0.184482        102560        103155        285527   4.11482e-15
   0.00500501        289.36       288.616      0.128163        11.234      -2.34302             0       12.1163    0.00549241             0       24.1885      0.351158             0       1.16355             0             0      0.187227   2.24052e-15      0.185971        102559        103155        285491   4.10506e-15
   0.00550551       289.356       288.623      0.122787       10.9579      -2.57121             0       12.0779    0.00418643             0       23.3538      0.364816             0         1.393             0             0      0.187669     2.238e-15      0.184046        102559        103154        285439   4.10043e-15
   0.00600601       289.351       288.631      0.117349       10.6799      -2.79981             0       12.0396    0.00287131             0       22.5211      0.378395             0       1.62276             0             0       0.18812   2.23549e-15      0.182089        102558        103154        285387   4.09583e-15
   0.00650651       289.338       288.641      0.106865       10.2348      -3.06294             0       12.0028    0.00080331             0        21.852      0.385465             0       1.87797             0             0      0.189191   2.23434e-15      0.177429        102557        103154        285313   4.09374e-15
   0.00700701       289.326       288.652     0.0964308       9.78947      -3.32656             0        11.966   -0.00128502             0       21.1859      0.392316             0       2.13358             0             0      0.190264    2.2332e-15      0.172767        102556        103154        285239   4.09165e-15
   0.00750751       289.314       288.659     0.0894304       9.31942      -3.62555             0       11.9359   -0.00480536             0       20.7439      0.383788             0       2.41787             0             0      0.191358   2.23237e-15      0.168008        102555        103153        285141   4.09012e-15
   0.00800801       289.303       288.665      0.082495       8.85034      -3.92501             0       11.9057   -0.00834808             0        20.305      0.375037             0       2.70268             0             0      0.192444   2.23153e-15      0.163287        102554        103153        285043   4.08859e-15
   0.00850851       289.298       288.667     0.0795594       8.44029      -4.25418             0       11.8807    -0.0132668             0       20.0607      0.352584             0       3.01964             0             0      0.192996   2.23049e-15      0.160887        102552        103153        284923   4.08668e-15
   0.00900901       289.293        288.67     0.0766476       8.03166      -4.58401             0       11.8556    -0.0182031             0       19.8179      0.330046             0       3.33722             0             0      0.193543   2.22945e-15       0.15851        102551        103152        284802   4.08477e-15
   0.00950951        289.29        288.67     0.0750397       7.69984      -4.94972             0       11.8296    -0.0241051             0       19.6601      0.302791             0       3.68813             0             0      0.193788    2.2283e-15      0.157443        102550        103152        284668   4.08266e-15
      0.01001       289.286       288.671     0.0734443       7.36934      -5.31647             0       11.8034    -0.0300258             0       19.5021      0.275481             0       4.03982             0             0      0.194034   2.22718e-15      0.156373        102548        103152        284533   4.08062e-15
    0.0105105       289.278       288.671      0.072464       7.10305      -5.73403             0       11.7723    -0.0368641             0       19.3351      0.245444             0       4.42937             0             0      0.194308   2.22774e-15      0.155184        102547        103152        284393   4.08163e-15
     0.011011        289.27       288.671     0.0714943       6.83824      -6.15275             0       11.7411    -0.0437287             0       19.1665      0.215243             0       4.81994             0             0       0.19458   2.22838e-15      0.153999        102545        103151        284253   4.08281e-15
    0.0115115       289.258        288.67     0.0709882       6.63864      -6.62291             0       11.7033    -0.0517709             0       18.9302      0.177814             0        5.2552             0             0      0.194799    2.2331e-15       0.15305        102542        103151        284097   4.09146e-15
     0.012012       289.247        288.67     0.0704876       6.44156      -7.09357             0       11.6653    -0.0598398             0       18.6907      0.140323             0       5.69152             0             0      0.195013   2.23792e-15      0.152117        102540        103150        283943   4.10028e-15
    0.0125125       289.235       288.669     0.0702109       6.34683      -7.58491             0       11.6188    -0.0689997             0       18.3238      0.100324             0       6.17111             0             0      0.195075   2.24645e-15      0.151846        102538        103150        283831   4.11591e-15
     0.013013       289.223       288.668     0.0699297       6.25635      -8.07517             0       11.5718    -0.0781412             0       17.9509     0.0612468             0       6.65107             0             0      0.195135   2.25515e-15      0.151587        102535        103150        283720   4.13186e-15
    0.0135135       289.201       288.669     0.0694738       6.32574      -8.52466             0       11.5098    -0.0865924             0        17.353     0.0567172             0       7.14495             0             0      0.195087    2.2704e-15      0.151795        102533        103149        283617   4.15979e-15
     0.014014       289.179       288.669     0.0690181        6.4007       -8.9713             0       11.4472    -0.0949465             0       16.7467     0.0542384             0        7.6377             0             0      0.195037    2.2857e-15      0.152012        102530        103149        283513   4.18782e-15
    0.0145145       289.144        288.67     0.0685644       6.66882      -9.31892             0       11.3618    -0.0999315             0       15.8477      0.122954             0       8.09136             0             0      0.194913   2.30272e-15      0.152552        102527        103148        283415   4.21901e-15
     0.015015       289.109       288.671     0.0681152       6.94207      -9.66298             0       11.2757     -0.104812             0       14.9419      0.192886             0       8.54303             0             0      0.194788   2.31949e-15      0.153098        102525        103148        283319   4.24973e-15
    0.0155155       289.075       288.672     0.0678085       7.38087      -9.89214             0       11.1661     -0.106307             0       13.8144       0.30217             0       8.93008             0             0      0.194628   2.32786e-15      0.153793        102523        103147        283279   4.26508e-15
     0.016016        289.04       288.673     0.0674995       7.82291      -10.1184             0        11.056     -0.107795             0       12.6851      0.410068             0       9.31551             0             0      0.194466   2.33602e-15      0.154496        102520        103147        283240   4.28003e-15
    0.0165165       289.008       288.673     0.0671195       8.36312      -10.2587             0       10.9297     -0.109081             0       11.5022      0.476066             0        9.6523             0             0      0.194248   2.33753e-15      0.155445        102518        103147        283191   4.28279e-15
     0.017017       288.976       288.674     0.0667425       8.90468      -10.3972             0       10.8031     -0.110427             0       10.3225      0.539253             0       9.98733             0             0      0.194025   2.33891e-15      0.156413        102516        103146        283141   4.28532e-15
    0.0175175        288.94       288.675     0.0664522       9.48494      -10.4829             0       10.6668     -0.113473             0       9.23593      0.522588             0       10.2725             0             0      0.193682   2.33689e-15      0.157905        102515        103146        283067   4.28162e-15
     0.018018       288.904       288.676     0.0661683       10.0655      -10.5671             0       10.5302     -0.116546             0       8.15664      0.503817             0       10.5544             0             0      0.193339   2.33481e-15      0.159395        102514        103146        282991   4.27782e-15
    0.0185185       288.869       288.677     0.0660557       10.6547      -10.6112             0       10.3864     -0.120331             0       7.27316      0.428681             0       10.7492             0             0       0.19301   2.33125e-15      0.160827        102513        103145        282880   4.27129e-15
     0.019019       288.835       288.678     0.0659394       11.2437      -10.6538             0       10.2425     -0.124122             0        6.4005      0.352369             0       10.9397             0             0      0.192687   2.32768e-15       0.16223        102512        103145        282767   4.26474e-15
    0.0195195       288.817        288.68     0.0657307       11.8274      -10.6558             0        10.096     -0.128064             0       5.80165       0.24628             0       11.0202             0             0      0.192536   2.32387e-15      0.162888        102512        103145        282617   4.25776e-15
      0.02002         288.8       288.681     0.0654977       12.4103       -10.656             0       9.94973     -0.132039             0       5.21521      0.139476             0       11.0965             0             0      0.192387   2.32003e-15      0.163536        102512        103145        282469   4.25074e-15
    0.0205205       288.797       288.684     0.0646817        12.975      -10.6115             0        9.8072     -0.136822             0       4.92621     0.0155077             0       11.0709             0             0      0.192291   2.31552e-15      0.163951        102512        103145        282338   4.24247e-15
     0.021021       288.794       288.687     0.0638371       13.5379      -10.5648             0       9.66489     -0.141614             0       4.64857      -0.10837             0       11.0411             0             0      0.192195     2.311e-15       0.16437        102512        103145        282208   4.23419e-15
    0.0215215       288.792       288.691     0.0623416       14.0593      -10.4656             0       9.52769      -0.14662             0       4.62987     -0.230191             0       10.9159             0             0      0.192078   2.30636e-15       0.16488        102513        103145        282114   4.22568e-15
     0.022022        288.79       288.696     0.0608333       14.5771      -10.3635             0       9.39059     -0.151557             0        4.6203     -0.350783             0       10.7863             0             0      0.191963   2.30175e-15       0.16538        102514        103145        282020   4.21723e-15
    0.0225225       288.788         288.7     0.0590466       15.0191      -10.1976             0        9.2558     -0.155012             0       4.80889     -0.444656             0       10.5601             0             0      0.191894   2.29797e-15       0.16568        102515        103145        281921   4.21031e-15
     0.023023       288.786       288.705      0.057272       15.4557      -10.0283             0       9.12109     -0.158368             0       5.00483      -0.53673             0       10.3296             0             0      0.191827   2.29423e-15       0.16597        102516        103146        281822   4.20346e-15
    0.0235235       288.785       288.709     0.0557465       15.7826      -9.78716             0       8.98814     -0.159677             0       5.35327     -0.591494             0       10.0101             0             0      0.191806   2.29125e-15      0.166062        102517        103146        281710     4.198e-15
     0.024024       288.784       288.713     0.0542513       16.1026      -9.54241             0       8.85545      -0.16091             0       5.70793     -0.644489             0       9.68698             0             0      0.191785   2.28828e-15      0.166152        102518        103146        281598   4.19256e-15
    0.0245245       288.785       288.718     0.0533575       16.2871      -9.22572             0       8.72778     -0.160628             0       6.18587     -0.662385             0       9.29108             0             0      0.191771   2.28557e-15      0.166213        102519        103147        281507    4.1876e-15
     0.025025       288.786       288.722     0.0524788       16.4643      -8.90593             0       8.60067     -0.160293             0       6.66789     -0.678665             0       8.89248             0             0      0.191757   2.28291e-15      0.166274        102521        103147        281414   4.18271e-15
    0.0255255       288.789       288.726     0.0518886       16.5033      -8.52701             0       8.48416     -0.158939             0       7.22771     -0.664227             0       8.44247             0             0       0.19174   2.28099e-15      0.166348        102522        103148        281291   4.17919e-15
     0.026026       288.792       288.731      0.051283       16.5361      -8.14647             0       8.36851     -0.157545             0       7.78788     -0.648573             0       7.99117             0             0      0.191722   2.27912e-15      0.166426        102523        103148        281167   4.17578e-15
    0.0265265       288.798       288.737     0.0503954        16.457      -7.73606             0       8.26857     -0.155398             0       8.35467     -0.610725             0       7.51632             0             0      0.191685   2.27834e-15      0.166585        102525        103149        281021   4.17435e-15
     0.027027       288.804       288.742     0.0494766       16.3744      -7.32641             0       8.16963     -0.153227             0        8.9182     -0.572161             0       7.04162             0             0      0.191645   2.27759e-15       0.16676        102526        103149        280874   4.17298e-15
    0.0275275       288.813        288.75     0.0480118       16.2328      -6.92993             0        8.0884     -0.150614             0       9.42458     -0.521075             0       6.56975             0             0      0.191541   2.27747e-15      0.167215        102527        103150        280699   4.17274e-15
     0.028028       288.823       288.757     0.0465736       16.0912      -6.53663             0       8.00825      -0.14796             0       9.92432     -0.469608             0       6.09912             0             0      0.191428   2.27739e-15      0.167702        102529        103150        280523   4.17261e-15
    0.0285285        288.84       288.765     0.0455827       15.9496      -6.19694             0       7.94634     -0.144601             0       10.3121     -0.411721             0        5.6493             0             0      0.191192    2.2782e-15      0.168732        102530        103150        280337   4.17408e-15
     0.029029       288.856       288.773     0.0446709       15.8103      -5.86156             0       7.88556      -0.14113             0       10.6896     -0.354012             0       5.20152             0             0      0.190955   2.27907e-15      0.169763        102531        103151        280155   4.17569e-15
    0.0295295       288.876       288.779     0.0450434       15.7083      -5.59613             0        7.8432      -0.13583             0       10.8993     -0.299192             0       4.78677             0             0      0.190714   2.28115e-15      0.170811        102532        103151        280027   4.17949e-15
      0.03003       288.895       288.785     0.0454433       15.6084      -5.33427             0       7.80189     -0.130384             0       11.0969     -0.245151             0       4.37477             0             0      0.190481   2.28326e-15       0.17182        102534        103152        279905   4.18336e-15
    0.0305305       288.916       288.787     0.0462727       15.5423      -5.12829             0       7.77719     -0.122662             0       11.1053     -0.203313             0       4.00563             0             0      0.190387   2.28601e-15       0.17223        102535        103152        279859    4.1884e-15
     0.031031       288.936       288.789     0.0470749       15.4766      -4.92433             0       7.75326     -0.114852             0       11.1042     -0.162295             0       3.63978             0             0      0.190299   2.28876e-15      0.172614        102536        103153        279815   4.19343e-15
    0.0315315       288.961       288.788     0.0474658       15.4174      -4.75097             0       7.74115     -0.105709             0       10.9597       -0.1337             0       3.32352             0             0      0.190299   2.29142e-15      0.172613        102537        103153        279798   4.19831e-15
     0.032032       288.985       288.787     0.0478196       15.3573      -4.57841             0       7.72937    -0.0965611             0       10.8118     -0.105561             0       3.01067             0             0      0.190302   2.29404e-15        0.1726        102538        103153        279787   4.20312e-15
    0.0325325       289.009       288.783     0.0476306       15.2852       -4.4175             0       7.72257    -0.0873289             0       10.6162    -0.0840963             0       2.74761             0             0      0.190347   2.29609e-15      0.172403        102539        103154        279849   4.20686e-15
     0.033033       289.032        288.78     0.0474086       15.2118      -4.25642             0       7.71571    -0.0781377             0        10.423     -0.062835             0       2.48761             0             0      0.190393   2.29806e-15      0.172203        102540        103154        279916   4.21047e-15
    0.0335335       289.052       288.775     0.0467172       15.1197      -4.09291             0       7.70806    -0.0695259             0       10.2655    -0.0444595             0       2.27068             0             0      0.190451     2.299e-15      0.171952        102540        103154        280049   4.21219e-15
     0.034034       289.073        288.77     0.0459854       15.0252       -3.9277             0       7.70023    -0.0609664             0       10.1123    -0.0262283             0       2.05617             0             0      0.190518   2.29976e-15      0.171663        102541        103154        280184    4.2136e-15
    0.0345345       289.101       288.763     0.0446994       14.8985       -3.7393             0       7.68986    -0.0531259             0        10.018   -0.00997442             0        1.8747             0             0      0.190706   2.29819e-15      0.170845        102542        103155        280350   4.21072e-15
     0.035035        289.13       288.756     0.0433836       14.7682      -3.54784             0       7.67944    -0.0453485             0       9.92625    0.00613998             0       1.69512             0             0      0.190915   2.29615e-15      0.169934        102543        103155        280520   4.20697e-15
    0.0355355       289.162       288.747     0.0416741       14.5891      -3.31579             0        7.6682    -0.0384093             0        9.8686      0.020402             0       1.54065             0             0      0.191411    2.2878e-15      0.167779        102544        103155        280750   4.19168e-15
     0.036036       289.193       288.739     0.0399724       14.4061      -3.08069             0       7.65709     -0.031542             0       9.81133     0.0344447             0       1.38779             0             0      0.191938    2.2782e-15      0.165486        102544        103155        280980   4.17408e-15
    0.0365365       289.211        288.73     0.0383712       14.1737      -2.80633             0       7.64755    -0.0256002             0       9.75894     0.0456599             0       1.25571             0             0      0.192877   2.25236e-15      0.161404        102545        103156        281219   4.12675e-15
     0.037037       289.226        288.72     0.0368211       13.9388      -2.53052             0       7.63821    -0.0197325             0       9.70608     0.0565757             0        1.1251             0             0      0.193868   2.22363e-15      0.157098        102546        103156        281457    4.0741e-15
    0.0375375       289.214       288.712     0.0359117        13.673      -2.23653             0       7.63135    -0.0147923             0        9.6474     0.0637462             0       1.01273             0             0      0.195504   2.15864e-15      0.149981        102546        103156        281697   3.95502e-15
     0.038038       289.198       288.704     0.0350612       13.4073      -1.94415             0       7.62465   -0.00993166             0       9.58858     0.0705909             0      0.901722             0             0      0.197242   2.08797e-15      0.142425        102546        103156        281938   3.82555e-15
    0.0385385        289.14       288.698     0.0349265       13.1426      -1.67129             0       7.62006   -0.00603679             0       9.52802     0.0734726             0      0.807193             0             0      0.200211   1.94828e-15      0.129516        102547        103156        282196    3.5696e-15
     0.039039        289.08       288.692     0.0348244        12.881      -1.40282             0       7.61558    -0.0022166             0       9.46788     0.0760985             0      0.713869             0             0      0.203223    1.8058e-15       0.11642        102547        103156        282454   3.30857e-15
    0.0395395       289.003       288.687     0.0351089        12.656       -1.1861             0       7.61233   0.000720805             0       9.41268     0.0757003             0      0.634775             0             0      0.206743   1.63046e-15      0.101117        102547        103156        282721   2.98731e-15
      0.04004       288.925       288.683     0.0354043       12.4361     -0.975274             0       7.60911    0.00359526             0       9.35808     0.0751708             0      0.556728             0             0      0.210228   1.45599e-15     0.0859649        102548        103156        282991   2.66765e-15
    0.0405405       288.853       288.681     0.0358259       12.2752     -0.832313             0       7.60628    0.00574573             0       9.31048     0.0731309             0      0.490721             0             0      0.213313   1.29159e-15     0.0725508        102548        103156        283284   2.36644e-15
     0.041041       288.782       288.678     0.0362413        12.119     -0.694607             0       7.60341    0.00784776             0       9.26324      0.071064             0      0.425634             0             0      0.216368   1.12756e-15     0.0592705        102548        103156        283576    2.0659e-15
    0.0415415       288.716       288.677      0.036587       12.0149     -0.615725             0       7.60018    0.00940739             0       9.21994     0.0686931             0      0.370862             0             0      0.219078   9.67634e-16     0.0474884        102548        103156        283865   1.77289e-15
     0.042042       288.651       288.675     0.0369257       11.9119     -0.539808             0       7.59683     0.0109284             0       9.17648     0.0663753             0      0.316922             0             0       0.22172   8.09654e-16     0.0359984        102548        103156        284150   1.48344e-15
    0.0425425       288.603       288.674     0.0371876       11.8207     -0.496229             0       7.59222     0.0120286             0       9.13117     0.0646368             0      0.272048             0             0       0.22363    6.7293e-16     0.0276943        102548        103156        284405   1.23293e-15
     0.043043       288.557       288.674     0.0374393       11.7244     -0.453189             0       7.58739     0.0130851             0       9.08512     0.0629442             0      0.227935             0             0      0.225466   5.39242e-16      0.019715        102549        103157        284660   9.87991e-16
    0.0435435       288.532       288.673     0.0375826       11.5749     -0.415875             0       7.58035     0.0136781             0       9.03121     0.0617389             0      0.191895             0             0      0.226507   4.37819e-16     0.0151878        102549        103157        284920   8.02166e-16
     0.044044       288.507       288.673     0.0377179       11.4151     -0.377826             0       7.57291     0.0142016             0       8.97675     0.0605076             0      0.156555             0             0      0.227519   3.37927e-16     0.0107891        102549        103157        285177   6.19145e-16
    0.0445445        288.49       288.673     0.0377697       11.1494     -0.332161             0        7.5613     0.0140047             0       8.91666     0.0590069             0      0.128467             0             0      0.228224   2.53895e-16    0.00772171        102549        103157        285412   4.65183e-16
     0.045045       288.473       288.673       0.03782       10.8727     -0.286178             0       7.54857     0.0137038             0       8.85355     0.0574385             0      0.101012             0             0      0.228906   1.72079e-16    0.00475459        102549        103157        285643   3.15281e-16
    0.0455455       288.463       288.673     0.0378562        10.485     -0.236982             0       7.52435     0.0123508             0       8.75993     0.0551861             0      0.079963             0             0      0.229356   1.12669e-16    0.00280169        102549        103157        285825    2.0643e-16