#           y             T         TMean   TPrime2Mean           U_x           U_y           U_z       UMean_x       UMean_y       UMean_z UPrime2Mea... UPrime2Mea... UPrime2Mea... UPrime2Mea... UPrime2Mea... UPrime2Mea...            O2           H2O          C3H8             p         pMean   pPrime2Mean           CO2
            0       287.761       288.016     0.0615022       27.6314             0             0        22.632             0             0       5.74331             0             0             0             0             0          0.23   1.57645e-21   1.53419e-09        102229        103150        256272   2.88836e-21
  0.000500501        287.76       288.016     0.0615111       27.6509     0.0275906             0       22.6341    0.00750883             0       5.75994      0.137662             0      0.044607             0             0          0.23   4.20202e-21    1.7222e-08        102228        103150        255830   7.69888e-21
     0.001001        287.76       288.016     0.0615197       27.6705     0.0551643             0       22.6363     0.0150248             0       5.77672       0.27533             0     0.0893196             0             0          0.23   6.93551e-21   3.41402e-08        102227        103150        255386   1.27072e-20
    0.0015015       287.759       288.016     0.0613878       27.7491     0.0742442             0       22.6322     0.0261022             0       5.86994      0.416071             0      0.186671             0             0          0.23   6.35251e-20   6.65089e-07        102227        103150        254127    1.1639e-19
     0.002002       287.758       288.016     0.0612556       27.8279     0.0932349             0       22.6282     0.0371603             0       5.96346      0.556956             0      0.284503             0             0          0.23   1.33913e-19   1.37754e-06        102227        103150        252865   2.45354e-19
    0.0025025       287.757       288.016     0.0610594       27.9634     0.0900148             0       22.6292     0.0434078             0       6.13124      0.733528             0      0.501854             0             0      0.229995   3.64014e-18   2.23838e-05        102226        103150        250938   6.66942e-18
     0.003003       287.755       288.016      0.060864       28.0997     0.0866525             0       22.6302     0.0497358             0       6.30057      0.910121             0      0.719954             0             0      0.229989   8.36204e-18   4.56956e-05        102225        103150        249007   1.53208e-17
    0.0035035       287.755       288.016     0.0607905       28.3629     0.0597236             0       22.6204     0.0694229             0       6.72687       1.09004             0       1.06238             0             0      0.229896   2.14481e-16   0.000450971        102225        103149        246481   3.92969e-16
     0.004004       287.755       288.017     0.0608378       28.6271     0.0325439             0       22.6107     0.0890218             0       7.15574        1.2714             0       1.40873             0             0      0.229796   4.99289e-16   0.000887305        102225        103149        243953   9.14791e-16
    0.0045045       287.793       288.029     0.0758517       29.0222    -0.0257406             0       22.6141     0.0976733             0       7.90254       1.63225             0       2.24022             0             0       0.22881   1.05415e-14    0.00517492        102224        103148        241095    1.9314e-14
   0.00500501       287.836       288.041     0.0970194       29.4178    -0.0843626             0       22.6171      0.106568             0       8.65829       1.99241             0       3.07934             0             0      0.227775   2.32823e-14    0.00967177        102223        103147        238238   4.26576e-14
   0.00550551       288.375       288.126      0.727401       29.8713     -0.176401             0       22.5759      0.139588             0       10.2996       2.28542             0       4.67363             0             0      0.221977   3.03181e-13     0.0348825        102222        103146        235347   5.55485e-13
   0.00600601       288.948       288.213       1.44492       30.3188     -0.271547             0       22.5347      0.171991             0       11.9372       2.58574             0       6.29757             0             0      0.216072   6.39447e-13     0.0605585        102221        103144        232462   1.17159e-12
   0.00650651       292.404       288.511       9.33692       30.2662     -0.622551             0        22.499      0.153684             0       13.2697       3.48816             0       10.3629             0             0      0.201355    5.6165e-12      0.124543        102214        103140        230085   1.02905e-11
   0.00700701       295.977       288.815       17.7991       30.2005     -0.975733             0       22.4638      0.136319             0       14.5731       4.38523             0       14.4494             0             0      0.186603   1.14969e-11      0.188684        102208        103136        227713   2.10644e-11
   0.00750751       307.807       289.542       66.4169       29.2185      -1.48237             0       22.4548      0.185184             0       13.8303       4.90525             0       20.0276             0             0      0.169338   8.09967e-11      0.263747        102209        103130        225748   1.48401e-10
   0.00800801       320.127       290.294       119.832       28.2308      -1.98689             0       22.4354      0.232254             0       13.0741       5.38488             0       25.6164             0             0      0.152183   1.67033e-10      0.338337        102209        103123        223781   3.06036e-10
   0.00850851       362.553       292.592         468.3       26.8876      -2.36151             0       21.7752      0.168882             0       11.4984       3.37995             0       31.8498             0             0      0.141719   1.27009e-09       0.38383        102215        103115        221702   2.32705e-09
   0.00900901       404.995       294.888       818.118       25.5548      -2.73075             0       21.1137         0.106             0       9.92514       1.36097             0       38.0424             0             0      0.131356   2.60226e-09      0.428887        102220        103107        219599   4.76783e-09
   0.00950951       448.318       297.103        1241.6       24.7843      -2.80571             0       20.3757      0.069885             0        8.4797      -1.42443             0       42.0094             0             0      0.126468   1.64337e-08       0.45014        102230        103103        216183   3.01097e-08
      0.01001       491.173       299.289       1661.14       24.0103      -2.86704             0       19.6319     0.0371397             0       7.06199       -4.1776             0       45.8721             0             0      0.121646   3.27954e-08      0.471106        102241        103099        212741   6.00872e-08
    0.0105105       511.034        300.02       1887.95        23.066      -2.26016             0       18.5965      0.169499             0       7.00323      -5.35161             0       44.6182             0             0      0.120061   1.73135e-07      0.477993        102258        103105        208067   3.17215e-07
     0.011011        530.81       300.746       2113.96       22.1224       -1.6494             0       17.5459      0.300964             0       6.97019      -6.48918             0       43.2814             0             0      0.118502   3.26745e-07      0.484771        102276        103110        203381   5.98657e-07
    0.0115115       546.787        301.19       2304.58       21.2169     -0.865867             0       15.8182      0.392661             0       8.07996      -6.00741             0       38.2535             0             0      0.118062   1.07029e-06      0.486677        102294        103119        198141   1.96097e-06
     0.012012       562.981       301.635       2495.83        20.303    -0.0818519             0       14.0924      0.482214             0       9.16373      -5.50142             0       33.1866             0             0      0.117687   1.92696e-06      0.488299        102312        103128        192913   3.53054e-06
    0.0125125       587.972       302.072        2712.3       19.0483      0.721624             0       12.4475      0.484583             0       9.19037      -4.01046             0       26.5324             0             0      0.119965   7.38407e-06      0.478339        102328        103135        188196    1.3529e-05
     0.013013       612.579       302.495       2922.49       17.7939         1.508             0       10.8276      0.484815             0       9.19014      -2.52829             0       19.9504             0             0       0.12211   1.27427e-05      0.468958        102343        103142        183515    2.3347e-05
    0.0135135       622.799       302.395       2897.62       16.5545       1.65361             0       10.1449      0.404991             0       8.18385      -1.37514             0        16.068             0             0      0.119276    1.4412e-05      0.481261        102355        103145        180200   2.64055e-05
     0.014014       632.058       302.273       2863.49       15.3344       1.79934             0        9.4877      0.327833             0       7.18047     -0.248366             0       12.2459             0             0      0.116075   1.58897e-05      0.495164        102368        103149        176910   2.91129e-05
    0.0145145       607.949       301.366       2507.81       14.7845       1.94929             0        9.7146      0.343198             0       6.27786    -0.0370641             0       10.5179             0             0      0.100116    1.0713e-05      0.564604        102380        103150        174496   1.96282e-05
     0.015015       583.779       300.464       2154.11       14.2447       2.10383             0        9.9393      0.357355             0       5.40393      0.170485             0       8.82548             0             0      0.084253   5.62002e-06      0.633625        102393        103152        172112   1.02969e-05
    0.0155155       557.619       299.732       1864.11        14.035       2.40672             0       10.0926      0.332449             0       5.45707      0.256683             0       8.28137             0             0     0.0715059   3.23361e-06      0.689072        102408        103152        170681   5.92457e-06
     0.016016       530.965       298.973       1572.44       13.8218       2.68652             0       10.2623      0.305048             0       5.57712      0.309991             0       7.77463             0             0     0.0593432   9.10173e-07      0.741977        102422        103151        169268   1.66761e-06
    0.0165165        489.35       297.418       1230.16       13.5035       2.26817             0       10.9247      0.202174             0       7.72132     -0.631632             0       8.39812             0             0     0.0648604   4.91819e-07      0.717993        102433        103150        168424   9.01104e-07
     0.017017       447.405       295.841        888.14       13.2365       1.84852             0       11.6512     0.0945472             0       9.88712      -1.59396             0       9.01106             0             0     0.0711428   8.63216e-08      0.690683        102445        103150        167580   1.58157e-07
    0.0175175       396.085       293.649       553.362       14.4271        1.3918             0       14.1975     -0.148145             0       12.6666       -3.1445             0       9.32439             0             0     0.0991676   4.60962e-08      0.568836        102454        103150        166754   8.44569e-08
     0.018018       345.731       291.491        227.01       15.6878      0.941125             0       16.7405     -0.382385             0       15.3795      -4.65617             0       9.64307             0             0      0.127291   7.19253e-09       0.44656        102464        103150        165928    1.3178e-08
    0.0185185       321.246       290.289       126.317       18.8222      0.652086             0       19.1922     -0.390307             0       16.3066      -5.12691             0       10.1049             0             0       0.15806   3.68067e-09      0.312782        102475        103148        165100   6.74367e-09
     0.019019       297.529       289.116       28.9315       21.8899      0.376423             0        21.579     -0.395713             0       17.1826      -5.56696             0       10.5475             0             0      0.188227   2.96708e-10      0.181623        102486        103147        164304   5.43624e-10
    0.0195195       293.237       288.688       15.2746       23.2688      0.439378             0       22.3219     -0.337437             0       16.7631      -5.23028             0       10.5012             0             0      0.203141   1.50512e-10       0.11678        102496        103148        164342   2.75765e-10
      0.02002       289.095       288.272       2.12398       24.6088      0.510662             0        23.047     -0.280599             0       16.3396      -4.89231             0       10.4485             0             0      0.217657   9.96537e-12     0.0536665        102505        103148        164399   1.82584e-11
    0.0205205        288.57       288.159       1.12143       25.0147      0.781836             0       23.3446      -0.25832             0       15.8188      -4.52361             0       10.2423             0             0      0.222627   5.01728e-12     0.0320567        102513        103148        164887    9.1926e-12
     0.021021       288.063        288.05      0.158793       25.4182       1.04605             0       23.6266     -0.232179             0       15.3088      -4.14067             0       10.0793             0             0      0.227434   2.71356e-13     0.0111578        102520        103148        165375   4.97174e-13
    0.0215215       287.972       288.031      0.106491       25.7659       1.15156             0       23.5529     -0.117935             0       15.0487      -3.43289             0       10.8994             0             0       0.22851   1.36658e-13     0.0064766        102524        103146        165862   2.50383e-13
     0.022022       287.884       288.014      0.056313       26.0986       1.24722             0       23.4562   -0.00320907             0       14.8108      -2.67601             0       11.7511             0             0      0.229538   7.72754e-15    0.00200696        102527        103144        166361   1.41583e-14
    0.0225225       287.881       288.031     0.0523085       26.1069        1.1289             0       22.8591      0.121975             0       15.0581     -0.852401             0       13.2922             0             0      0.229509   4.09056e-15    0.00213418        102529        103141        167094   7.49467e-15
     0.023023       287.879        288.05     0.0484256        26.064       1.00569             0       22.2108      0.253616             0        15.409       1.03395             0       14.8434             0             0      0.229439   6.11516e-16    0.00243713        102531        103138        167827   1.12041e-15
    0.0235235       287.908       288.092     0.0470651       24.9581      0.781034             0       20.4983      0.519167             0       17.9104       4.22152             0       16.6044             0             0      0.228532   4.07792e-16    0.00638464        102530        103133        168554   7.47151e-16
     0.024024       287.939       288.135     0.0460314       23.7521      0.537975             0       18.7202      0.778507             0       20.7093       7.34009             0       18.4105             0             0      0.227555   2.20184e-16      0.010629        102529        103129        169301   4.03418e-16
    0.0245245       288.003       288.191     0.0514806       20.5594    -0.0700198             0       15.6389      0.914666             0       29.4057       9.09005             0         21.11             0             0      0.225225   3.52218e-16      0.020761        102528        103124        170445    6.4533e-16
     0.025025       288.067       288.247     0.0571841       17.3881     -0.703092             0       12.5655       1.03594             0       38.3602       10.6503             0       23.8716             0             0       0.22292   4.84488e-16     0.0307841        102528        103118        171572   8.87673e-16
    0.0255255       288.116       288.295     0.0677202       14.6242      -1.81263             0       9.64145      0.874383             0       52.2189       8.60636             0       27.8147             0             0      0.221091   6.21227e-16     0.0387367        102527        103111        172410    1.1382e-15
     0.026026       288.162       288.342     0.0781309       11.8908      -2.91646             0       6.77625      0.705954             0        65.833       6.49628             0       31.7533             0             0      0.219368   7.60847e-16      0.046224        102526        103104        173233   1.39401e-15
    0.0265265       288.164       288.371     0.0862565       9.71466      -3.91637             0       4.98341      0.412232             0       74.9857       3.18078             0       35.6091             0             0      0.219597   9.52997e-16      0.045229        102523        103097        173781   1.74607e-15
     0.027027       288.165       288.398     0.0941079       7.47634      -4.89548             0       3.22583      0.114092             0       83.5841     -0.126739             0       39.4188             0             0      0.219843   1.16642e-15       0.04416        102520        103089        174338   2.13709e-15
    0.0275275       288.162       288.416     0.0971565       4.14949      -5.51011             0       2.08619     -0.261451             0       82.4725      -3.29441             0       42.4186             0             0      0.220387   1.75243e-15     0.0417954        102520        103081        175052   3.21077e-15
     0.028028       288.158       288.433      0.100045       0.81147      -6.10336             0      0.965637     -0.638136             0       81.0084       -6.4358             0       45.3261             0             0       0.22087   2.37916e-15     0.0396944        102520        103074        175781   4.35907e-15
    0.0285285       288.151       288.446      0.100244      -2.71491      -6.33622             0      0.166802      -1.03405             0       73.6002      -9.13391             0        46.679             0             0      0.220331   3.69244e-15     0.0420393        102525        103067        176777   6.76524e-15
     0.029029       288.143       288.458      0.100361      -6.18046      -6.54858             0     -0.624384      -1.42746             0        66.079      -11.7391             0       47.9356             0             0       0.21973     4.985e-15      0.044651        102530        103061        177795   9.13344e-15
    0.0295295       288.128       288.465     0.0991566      -8.65822       -6.4281             0      -1.29133      -1.78023             0       56.7204      -12.8355             0       47.6301             0             0      0.218132   5.94108e-15     0.0515979        102537        103056        179164   1.08852e-14
      0.03003       288.113       288.473     0.0979201       -11.029      -6.29216             0      -1.95162       -2.1293             0       47.4278      -13.8252             0       47.2546             0             0       0.21648   6.77703e-15     0.0587827        102544        103052        180552   1.24168e-14
    0.0305305       288.094       288.479     0.0961764      -11.7241      -5.91413             0      -2.50752      -2.42049             0       39.1692      -13.1437             0       45.7837             0             0       0.21397   5.73077e-15     0.0696935        102549        103049        182229   1.04998e-14
     0.031031       288.075       288.484     0.0944885      -12.3233      -5.53459             0      -3.05578      -2.70588             0       31.1515      -12.3814             0       44.2644             0             0      0.211511   4.66361e-15      0.080387        102555        103047        183924   8.54461e-15
    0.0315315       288.058       288.487     0.0936452       -11.472      -5.13224             0      -3.48862      -2.90351             0        26.778      -10.3967             0       42.0152             0             0      0.209808   3.28031e-15      0.087793        102558        103048        185896   6.01014e-15
     0.032032       288.041       288.491     0.0928858      -10.5998      -4.73822             0      -3.91011      -3.09579             0       22.6595      -8.39629             0       39.7426             0             0      0.208225    1.9661e-15     0.0946719        102562        103048        187895   3.60227e-15
    0.0325325       288.032       288.491      0.093354      -9.42061      -4.46597             0      -4.16565       -3.2097             0       22.2699      -6.16505             0       37.1292             0             0      0.208416   1.66241e-15     0.0938439        102566        103052        190285   3.04584e-15
     0.033033       288.023       288.492     0.0938599      -8.27005      -4.19635             0      -4.40902      -3.31889             0       22.0118      -3.96471             0       34.5097             0             0      0.208679   1.37495e-15      0.092698        102570        103055        192727   2.51916e-15
    0.0335335       288.019       288.491     0.0948998      -7.52462      -3.96375             0      -4.48022      -3.36111             0       23.6151      -2.20151             0       31.8039             0             0      0.209978    1.3173e-15     0.0870531        102573        103059        195911   2.41355e-15
     0.034034       288.018       288.491      0.095902      -6.80693      -3.72217             0      -4.54081      -3.40035             0       25.2202     -0.475432             0       29.1111             0             0      0.211305   1.26192e-15     0.0812836        102576        103063        199134   2.31208e-15
    0.0345345       288.041       288.491      0.096387      -6.46957      -3.35749             0       -4.4561      -3.39876             0       26.8481      0.742004             0       26.5963             0             0      0.213025   1.23755e-15     0.0738058        102579        103068        202885   2.26742e-15
     0.035035       288.066       288.492     0.0967452      -6.14668      -2.98589             0      -4.36429      -3.39439             0       28.4042       1.92441             0       24.1005             0             0      0.214705    1.2133e-15     0.0664984        102582        103072        206651   2.22299e-15
    0.0355355       288.114       288.495     0.0954183      -6.01597      -2.52234             0      -4.17813      -3.35317             0        29.006       2.64147             0       21.8577             0             0      0.215865   1.19062e-15      0.061456        102583        103076        210617   2.18143e-15
     0.036036       288.162       288.499     0.0939374      -5.88399      -2.06163             0      -3.98643      -3.30896             0       29.5017        3.3138             0       19.6367             0             0      0.216981   1.16831e-15      0.056603        102585        103080        214562   2.14057e-15
    0.0365365         288.2       288.506      0.090472      -5.73558      -1.63756             0      -3.72343      -3.22613             0       28.6293       3.40962             0       17.6968             0             0      0.217536   1.15086e-15     0.0541917        102585        103084        218251   2.10859e-15
     0.037037       288.236       288.514     0.0870041      -5.57675      -1.22591             0      -3.45674      -3.13991             0       27.6694       3.46522             0       15.7862             0             0      0.218074    1.1336e-15     0.0518527        102585        103087        221906   2.07696e-15
    0.0375375       288.244       288.523     0.0835048      -5.28742     -0.969612             0      -3.14381      -3.01118             0       25.6149        3.0175             0       14.2419             0             0      0.218404   1.11875e-15     0.0504183        102583        103089        225134   2.04976e-15
     0.038038        288.25       288.532     0.0800871      -4.98635     -0.723193             0      -2.82825      -2.88011             0       23.5483       2.55771             0       12.7306             0             0      0.218729    1.1044e-15      0.049003        102582        103091        228321   2.02346e-15
    0.0385385       288.236       288.541     0.0776618      -4.54254     -0.596815             0      -2.48079      -2.72043             0       21.3335       1.95102             0        11.619             0             0      0.219002   1.09599e-15     0.0478194        102580        103092        230999   2.00805e-15
     0.039039       288.222       288.549     0.0753228      -4.09262     -0.475593             0       -2.1323      -2.55956             0       19.1665       1.35214             0       10.5334             0             0      0.219275   1.08841e-15     0.0466324        102579        103094        233640   1.99418e-15
    0.0395395       288.198       288.555     0.0740033      -3.57047     -0.415301             0      -1.77161      -2.38456             0       17.5652      0.845633             0       9.75381             0             0      0.219557   1.09078e-15     0.0454045        102577        103095        235842    1.9985e-15
      0.04004       288.175       288.561     0.0728049      -3.03882     -0.359886             0      -1.41006      -2.20956             0       16.0144       0.34809             0       8.98564             0             0       0.21984   1.09395e-15      0.044176        102575        103096        238007   2.00432e-15
    0.0405405       288.155       288.565     0.0729997      -2.39807     -0.360557             0      -1.03862      -2.03453             0       15.0449    -0.0463886             0       8.34871             0             0      0.220124   1.10649e-15     0.0429394        102573        103097        239737    2.0273e-15
     0.041041       288.136       288.569     0.0732507      -1.74867     -0.364922             0     -0.665513      -1.85987             0       14.0951     -0.431545             0       7.71519             0             0      0.220404   1.11926e-15     0.0417239        102572        103097        241436    2.0507e-15
    0.0415415       288.129       288.572     0.0741299      -1.00255     -0.410647             0     -0.273835      -1.68927             0       13.3656     -0.712342             0       7.11991             0             0      0.220629   1.13457e-15     0.0407435        102571        103099        242789   2.07875e-15
     0.042042       288.124       288.576     0.0750113     -0.246644     -0.459875             0      0.119245       -1.5195             0       12.6558     -0.978741             0       6.52436             0             0      0.220843   1.14933e-15     0.0398133        102570        103100        244109   2.10579e-15
    0.0425425       288.126        288.58      0.075916      0.616013     -0.547288             0      0.527601      -1.35884             0       12.1597      -1.08814             0       5.92589             0             0      0.220931   1.15809e-15     0.0394289        102571        103101        245063   2.12183e-15
     0.043043       288.129       288.584     0.0768123       1.48861     -0.635743             0      0.935024      -1.19939             0       11.7133      -1.18343             0       5.32866             0             0      0.221007   1.16618e-15     0.0390997        102572        103103        245988   2.13666e-15
    0.0435435       288.132       288.587     0.0776204       2.46678     -0.735256             0       1.33251      -1.05276             0       11.7955      -1.12876             0       4.74456             0             0      0.220948   1.16727e-15     0.0393574        102574        103104        246594   2.13865e-15
     0.044044       288.134       288.591     0.0783575       3.45488     -0.836049             0       1.72782      -0.90755             0        11.932      -1.06408             0       4.16566             0             0      0.220882   1.16792e-15     0.0396421        102577        103106        247178   2.13985e-15
    0.0445445       288.131       288.593      0.078359       4.54582     -0.950109             0       2.10057      -0.77707             0       12.6311     -0.895691             0       3.64056             0             0      0.220753   1.16409e-15     0.0402056        102582        103108        247526   2.13283e-15
     0.045045       288.128       288.596     0.0781769       5.63653      -1.05912             0       2.46831     -0.648754             0       13.3616      -0.72426             0       3.12116             0             0      0.220619   1.15966e-15     0.0407878        102587        103110        247865   2.12471e-15
    0.0455455       288.119       288.597     0.0761373       6.72498      -1.11706             0       2.78547     -0.542318             0       14.4104     -0.522062             0       2.65937             0             0      0.220442   1.14918e-15      0.041558        102594        103113        248117    2.1055e-15