#           y             T         TMean   TPrime2Mean           U_x           U_y           U_z       UMean_x       UMean_y       UMean_z UPrime2Mea... UPrime2Mea... UPrime2Mea... UPrime2Mea... UPrime2Mea... UPrime2Mea...            O2           H2O          C3H8             p         pMean   pPrime2Mean           CO2
  1.11022e-19       287.454        288.19      0.183476       33.1683  -5.42605e-17             0       16.4837    9.6605e-18             0       37.6398   4.42562e-18             0   2.28287e-17             0             0       0.22827   4.49855e-17    0.00752182        102205        103195        255409   8.24219e-17
  0.000500501       287.448        288.19      0.188109       33.1787     -0.244612             0       16.4941     0.0435506             0       37.6726     0.0199512             0      0.102914             0             0      0.226275   6.67792e-17     0.0161975        102205        103195        255398   1.22352e-16
     0.001001       287.442       288.191      0.192758       33.1891     -0.489298             0       16.5046     0.0871009             0       37.7054      0.039883             0      0.206075             0             0      0.224267   8.86603e-17     0.0249242        102204        103195        255388   1.62442e-16
    0.0015015       287.465       288.194      0.205164       33.1781     -0.770699             0       16.5279      0.130487             0       37.8035     0.0501783             0      0.432639             0             0      0.216419   1.54185e-16     0.0590464        102204        103194        255359   2.82496e-16
     0.002002       287.488       288.196      0.217578       33.1659      -1.05226             0       16.5511      0.173872             0       37.9009     0.0605139             0       0.65966             0             0      0.208549    2.1983e-16     0.0932631        102203        103194        255329    4.0277e-16
    0.0025025       287.609       288.204      0.231706       32.8339      -1.37404             0       16.5554      0.217075             0       37.8286     0.0808655             0       1.00071             0             0      0.195268   3.15305e-16      0.151008        102201        103193        255339   5.77698e-16
     0.003003        287.73       288.212      0.245808       32.4983      -1.69556             0       16.5595      0.260278             0       37.7533      0.101455             0       1.34227             0             0      0.181999    4.1074e-16      0.208701        102200        103193        255349   7.52552e-16
    0.0035035       287.896       288.227      0.255412       31.5724      -1.97537             0       16.5167      0.303499             0       37.1721      0.161441             0       1.76733             0             0      0.170685   4.99396e-16      0.257893        102198        103192        255374   9.14987e-16
     0.004004        288.06       288.243      0.264984       30.6454      -2.25505             0       16.4736      0.346724             0        36.588      0.221727             0        2.1929             0             0      0.159425   5.87798e-16      0.306847        102197        103192        255398   1.07696e-15
    0.0045045       288.152       288.262      0.270542       29.5772      -2.51952             0       16.3891      0.390432             0       35.6567      0.319208             0       2.68107             0             0      0.154966   6.44645e-16      0.326236        102195        103191        255421   1.18111e-15
   0.00500501       288.244       288.281      0.276082       28.5127      -2.78449             0       16.3043      0.434127             0       34.7264      0.416763             0        3.1698             0             0       0.15057   7.01378e-16      0.345348        102193        103190        255443   1.28505e-15
   0.00550551       288.246       288.297      0.279781       27.8216      -3.09814             0       16.2015      0.476561             0       33.9096      0.521567             0        3.7134             0             0      0.152495   7.46704e-16       0.33698        102191        103189        255517    1.3681e-15
   0.00600601       288.248       288.313       0.28346       27.1351      -3.41206             0       16.0986      0.518951             0       33.0958       0.62552             0       4.25781             0             0       0.15448   7.92115e-16      0.328347        102190        103189        255590    1.4513e-15
   0.00650651       288.163       288.327       0.28539       26.8293      -3.74838             0       15.9992      0.557836             0       32.5287      0.659365             0       4.86834             0             0      0.161497   8.44437e-16      0.297839        102188        103188        255670   1.54717e-15
   0.00700701       288.078       288.341      0.287294       26.5314       -4.0857             0          15.9      0.596657             0       31.9651      0.691225             0       5.48022             0             0      0.168513   8.96991e-16      0.267333        102186        103187        255750   1.64345e-15
   0.00750751        287.97        288.35      0.287375       26.7943      -4.49298             0       15.8217      0.630974             0       31.6549      0.583386             0       6.18754             0             0      0.175484   9.65818e-16      0.237025        102184        103186        255846   1.76956e-15
   0.00800801       287.864       288.359      0.287414       27.0641      -4.90129             0       15.7438      0.665308             0       31.3513      0.474483             0       6.89702             0             0      0.182398   1.03467e-15      0.206963        102182        103185        255943   1.89572e-15
   0.00850851       287.822       288.361      0.284867        27.762      -5.37292             0       15.6967      0.700667             0       31.4646      0.300198             0       7.73963             0             0      0.185841   1.10531e-15      0.191995        102178        103184        256136   2.02513e-15
   0.00900901        287.78       288.362      0.282267       28.4555      -5.84422             0       15.6496      0.736181             0       31.5828      0.128334             0       8.58417             0             0      0.189248   1.17531e-15      0.177183        102174        103183        256332   2.15338e-15
   0.00950951       287.779        288.36      0.276821       28.9069      -6.29764             0       15.6091      0.780156             0       31.9658     0.0885016             0       9.53452             0             0      0.190686   1.21055e-15      0.170929        102169        103182        256656   2.21796e-15
      0.01001       287.777       288.358      0.271371       29.3496      -6.75077             0       15.5678      0.824363             0       32.3462     0.0537823             0       10.4855             0             0      0.192112   1.24523e-15      0.164733        102164        103181        256982   2.28149e-15
    0.0105105       287.777       288.359       0.26571       29.3651      -7.19011             0       15.4891      0.879897             0       32.5971      0.269597             0        11.465             0             0      0.192884   1.25171e-15      0.161376        102158        103179        257425   2.29337e-15
     0.011011       287.777        288.36      0.260094       29.3748      -7.62944             0       15.4092      0.935574             0        32.847      0.490088             0       12.4448             0             0       0.19366   1.25794e-15      0.158002        102151        103178        257870   2.30477e-15
    0.0115115       287.772       288.366      0.256461       29.1236      -8.06813             0        15.272      0.997629             0       33.0518      0.918491             0       13.4361             0             0      0.194613   1.25263e-15      0.153858        102144        103176        258455   2.29506e-15
     0.012012       287.768       288.371      0.252847       28.8652      -8.50641             0       15.1333       1.05972             0        33.263       1.35056             0       14.4273             0             0      0.195564   1.24721e-15      0.149721        102136        103174        259043   2.28511e-15
    0.0125125        287.77       288.379      0.249999       28.3154       -8.9278             0       14.9298       1.12325             0       33.7318       1.93193             0       15.4109             0             0      0.196461   1.23666e-15      0.145821        102128        103172        259791   2.26579e-15
     0.013013       287.771       288.387       0.24718       27.7605      -9.34913             0       14.7243       1.18668             0       34.2058       2.51548             0       16.3926             0             0      0.197346   1.22619e-15      0.141972        102120        103170        260545   2.24662e-15
    0.0135135        287.78       288.395       0.24548       27.0112      -9.76815             0       14.4444        1.2463             0       34.8772       3.18066             0       17.2975             0             0      0.197786   1.21865e-15      0.140061        102111        103168        261535    2.2328e-15
     0.014014       287.788       288.404      0.243831       26.2637      -10.1881             0       14.1628       1.30551             0       35.5511       3.84347             0       18.1999             0             0      0.198223   1.21123e-15      0.138163        102103        103166        262532    2.2192e-15
    0.0145145       287.797       288.411      0.243986       25.5796      -10.6382             0       13.8234        1.3505             0       36.3094       4.42425             0       19.0148             0             0      0.198554   1.20787e-15      0.136721        102094        103165        263795   2.21305e-15
     0.015015       287.806       288.417      0.244173       24.8966      -11.0885             0       13.4832       1.39481             0       37.0657       4.99886             0       19.8281             0             0      0.198885   1.20458e-15      0.135285        102086        103163        265066   2.20701e-15
    0.0155155       287.813       288.421      0.245424        24.252      -11.5394             0       13.1157       1.41702             0       37.7599       5.37403             0       20.5887             0             0      0.199181   1.20323e-15      0.133997        102077        103161        266587   2.20453e-15
     0.016016       287.819       288.424      0.246657       23.6045      -11.9891             0       12.7481       1.43858             0       38.4418       5.74389             0       21.3484             0             0      0.199477   1.20191e-15      0.132708        102069        103159        268116   2.20212e-15
    0.0165165       287.817       288.425      0.247384       22.8704      -12.4039             0       12.3775       1.44063             0        38.752       5.95351             0       22.0778             0             0      0.199774   1.20162e-15      0.131416        102061        103157        269923   2.20159e-15
     0.017017       287.814       288.426      0.247999       22.1353      -12.8179             0       12.0075       1.44236             0       39.0456       6.16028             0       22.8069             0             0      0.200073   1.20133e-15      0.130117        102052        103156        271735   2.20107e-15
    0.0175175       287.801       288.423      0.245463        21.374        -13.21             0       11.6565       1.43485             0       38.8665       6.28623             0       23.5253             0             0      0.200415   1.20113e-15      0.128631        102044        103154        273705   2.20069e-15
     0.018018       287.789        288.42      0.242846       20.6135      -13.6016             0       11.3064       1.42727             0       38.6689       6.40966             0       24.2448             0             0      0.200752    1.2009e-15      0.127164        102037        103152        275681   2.20027e-15
    0.0185185        287.77       288.413      0.238052       19.8732      -13.9827             0       10.9809       1.41778             0       37.9729       6.46541             0       24.9962             0             0      0.200966   1.20014e-15      0.126235        102030        103151        277784   2.19888e-15
     0.019019       287.752       288.407       0.23334        19.132      -14.3631             0       10.6561        1.4082             0        37.256       6.51747             0       25.7514             0             0       0.20117   1.19935e-15      0.125346        102023        103150        279889   2.19743e-15
    0.0195195       287.734       288.402      0.230727       18.3683      -14.7276             0       10.3482       1.39669             0       36.0071       6.47606             0       26.6007             0             0      0.201134   1.19778e-15      0.125503        102017        103148        282053   2.19455e-15
      0.02002       287.716       288.397       0.22818       17.6034      -15.0914             0        10.041         1.385             0       34.7437       6.43015             0       27.4551             0             0      0.201098   1.19619e-15      0.125663        102011        103147        284213   2.19165e-15
    0.0205205         287.7         288.4      0.227219       16.8102       -15.438             0       9.74806       1.36899             0       33.1315       6.27639             0       28.4326             0             0      0.201047    1.1943e-15      0.125882        102006        103145        286267   2.18819e-15
     0.021021       287.685       288.402      0.226255       16.0159      -15.7837             0       9.45568       1.35279             0       31.5146       6.11733             0       29.4143             0             0      0.200997   1.19238e-15        0.1261        102001        103144        288312   2.18467e-15
    0.0215215       287.674       288.412      0.225208       15.1965      -16.1101             0       9.17605        1.3322             0       29.7935       5.83756             0       30.4911             0             0      0.200959   1.18979e-15      0.126263        101998        103143        290170   2.17991e-15
     0.022022       287.664       288.422      0.224234       14.3752      -16.4349             0       8.89668        1.3114             0       28.0771       5.55237             0       31.5694             0             0      0.200918   1.18715e-15      0.126443        101994        103142        292012   2.17508e-15
    0.0225225       287.659       288.434      0.224845       13.5103       -16.727             0       8.62274       1.28583             0       26.4633       5.14918             0       32.6794             0             0      0.200799    1.1837e-15      0.126961        101992        103140        293514   2.16876e-15
     0.023023       287.653       288.447      0.225522       12.6437      -17.0166             0       8.34885       1.25989             0       24.8611       4.74181             0       33.7878             0             0      0.200682   1.18028e-15      0.127468        101990        103139        294996    2.1625e-15
    0.0235235       287.648       288.457      0.227558       11.7391      -17.2555             0       8.07614       1.22626             0       23.4992       4.24773             0       34.8662             0             0      0.200615    1.1775e-15       0.12776        101989        103138        296075    2.1574e-15
     0.024024       287.643       288.468      0.229676       10.8335      -17.4912             0        7.8039        1.1921             0       22.1523       3.75163             0       35.9411             0             0      0.200549   1.17474e-15      0.128049        101989        103137        297131   2.15234e-15
    0.0245245       287.638       288.477      0.233429       9.90737      -17.6636             0       7.54109       1.14736             0       21.1033       3.21538             0       36.9463             0             0       0.20049   1.17237e-15      0.128303        101990        103137        297733   2.14801e-15
     0.025025       287.633       288.487       0.23719       8.98078       -17.832             0       7.27946       1.10213             0       20.0735       2.67839             0       37.9467             0             0       0.20043      1.17e-15      0.128567        101990        103136        298308   2.14366e-15
    0.0255255        287.63       288.497      0.241091        8.0462      -17.9244             0       7.04035       1.04762             0       19.4084       2.12742             0        38.857             0             0      0.200327   1.16759e-15      0.129012        101993        103136        298360   2.13925e-15
     0.026026       287.629       288.507      0.244828       7.11233       -18.012             0       6.80272      0.992808             0       18.7669       1.57512             0       39.7618             0             0      0.200223    1.1652e-15      0.129467        101995        103136        298383   2.13487e-15
    0.0265265       287.631       288.516      0.245545        6.1914      -18.0128             0        6.5922      0.932557             0       18.5543      0.998886             0       40.5658             0             0       0.20008   1.16321e-15      0.130085        102000        103136        297883   2.13121e-15
     0.027027       287.633       288.525      0.246082       5.27276      -18.0082             0       6.38312      0.872167             0       18.3681      0.419859             0       41.3635             0             0      0.199936   1.16122e-15      0.130713        102004        103136        297355   2.12757e-15
    0.0275275       287.637       288.532      0.243441       4.39433      -17.9075             0       6.19932      0.809339             0       18.6447     -0.208013             0       42.0534             0             0      0.199753   1.15941e-15      0.131511        102010        103136        296347   2.12425e-15
     0.028028       287.642        288.54      0.240712       3.51971      -17.8009             0       6.01697      0.746471             0        18.946     -0.839118             0       42.7356             0             0      0.199563   1.15756e-15      0.132334        102016        103136        295316   2.12086e-15
    0.0285285        287.65       288.543      0.236483       2.70929      -17.5925             0       5.85909      0.682943             0       19.6624      -1.52471             0       43.2889             0             0      0.199276   1.15506e-15      0.133583        102023        103136        293904   2.11629e-15
     0.029029       287.658       288.546      0.232308       1.90421      -17.3782             0       5.70272      0.619408             0       20.3956      -2.21202             0       43.8311             0             0      0.198977   1.15251e-15      0.134883        102031        103136        292476   2.11161e-15
    0.0295295       287.673       288.545      0.228998       1.18586       -17.067             0        5.5709      0.555756             0       21.4002      -2.92728             0       44.1938             0             0      0.198488   1.14889e-15       0.13701        102040        103137        290816   2.10499e-15
      0.03003       287.687       288.545       0.22574      0.473957      -16.7505             0        5.4403      0.492252             0       22.4123      -3.64155             0       44.5401             0             0      0.197991   1.14525e-15       0.13917        102049        103137        289147   2.09831e-15
    0.0305305       287.706       288.544      0.223296     -0.137001      -16.3505             0       5.32883       0.43107             0       23.5406      -4.34032             0       44.6322             0             0      0.197371   1.14118e-15      0.141866        102058        103138        287324   2.09086e-15
     0.031031       287.725       288.543      0.220815     -0.741405      -15.9467             0       5.21799      0.370393             0       24.6685      -5.03475             0       44.7033             0             0      0.196755   1.13717e-15      0.144545        102068        103140        285494    2.0835e-15
    0.0315315       287.743       288.541      0.217767      -1.24666      -15.4859             0       5.11669      0.317341             0       25.7903      -5.66356             0        44.457             0             0      0.196198   1.13402e-15      0.146966        102078        103141        283558   2.07773e-15
     0.032032        287.76        288.54      0.214659      -1.74665       -15.024             0       5.01621      0.265051             0       26.9052      -6.28653             0       44.1878             0             0      0.195652   1.13099e-15       0.14934        102089        103142        281621   2.07218e-15
    0.0325325       287.774       288.538       0.21065      -2.16978      -14.5459             0       4.92779      0.223914             0       27.9203      -6.82409             0       43.5829             0             0       0.19526   1.12972e-15      0.151042        102100        103144        279673   2.06986e-15
     0.033033       287.788       288.536      0.206571      -2.58975      -14.0694             0       4.84112      0.183524             0       28.9303      -7.35887             0       42.9588             0             0      0.194864   1.12861e-15      0.152763        102110        103145        277728   2.06783e-15
    0.0335335       287.805       288.535      0.201505      -2.96507      -13.6137             0       4.77944      0.153708             0       29.8672      -7.85424             0       42.0629             0             0      0.194407   1.12967e-15      0.154753        102121        103147        275823   2.06977e-15
     0.034034       287.823       288.535      0.196426      -3.33783      -13.1599             0       4.72019       0.12434             0       30.8098      -8.34731             0       41.1533             0             0      0.193932   1.13101e-15      0.156817        102132        103149        273929   2.07221e-15
    0.0345345       287.852       288.534      0.191168      -3.67559      -12.7314             0       4.69436      0.101111             0       31.8296      -8.80894             0       40.0557             0             0      0.193222   1.13616e-15      0.159903        102143        103150        272176   2.08165e-15
     0.035035       287.882       288.534      0.185948      -4.00759      -12.3017             0       4.67137     0.0779725             0       32.8575      -9.26295             0       38.9478             0             0      0.192518   1.14159e-15      0.162966        102154        103152        270436    2.0916e-15
    0.0355355       287.913       288.533      0.181235       -4.2631      -11.8556             0        4.6862     0.0560501             0       33.9917      -9.61565             0       37.7016             0             0      0.191881   1.15074e-15      0.165736        102164        103154        268859   2.10837e-15
     0.036036       287.943       288.532      0.176515      -4.50698      -11.4041             0       4.70353     0.0344339             0       35.1385      -9.96114             0       36.4478             0             0      0.191269   1.16002e-15      0.168395        102175        103157        267293   2.12537e-15
    0.0365365       287.962       288.533      0.171704      -4.60091      -10.8839             0       4.75299      0.016765             0       36.4472      -10.2137             0       35.0947             0             0      0.190985   1.17092e-15      0.169631        102185        103159        265857   2.14534e-15
     0.037037       287.981       288.533      0.166923      -4.68193      -10.3579             0       4.80408  -0.000183125             0       37.7796      -10.4661             0       33.7338             0             0      0.190716   1.18177e-15      0.170801        102194        103161        264436   2.16522e-15
    0.0375375       287.988       288.534      0.162525      -4.60142      -9.75913             0       4.87559   -0.00811101             0       39.4083      -10.7161             0       32.2749             0             0      0.190636   1.19196e-15      0.171149        102203        103163        263198   2.18389e-15
     0.038038       287.996       288.534      0.158341      -4.51744      -9.15942             0       4.94876    -0.0154238             0       41.0412      -10.9703             0       30.8094             0             0      0.190558   1.20262e-15      0.171487        102211        103165        261975   2.20342e-15
    0.0385385       287.997       288.533      0.156753      -4.39132      -8.54835             0       5.04216    -0.0152587             0       42.7248      -11.2761             0       29.2639             0             0      0.190505   1.21894e-15      0.171716        102219        103167        260936   2.23333e-15
     0.039039       287.998       288.531       0.15544      -4.27431       -7.9407             0       5.13749    -0.0148212             0       44.3752      -11.5823             0       27.7167             0             0      0.190451   1.23614e-15      0.171951        102226        103170        259913   2.26484e-15
    0.0395395       287.992       288.525      0.157365      -4.26516       -7.3736             0       5.25556    -0.0111651             0       45.6339      -11.8933             0       26.1493             0             0      0.190378   1.26358e-15      0.172271        102232        103172        259077   2.31511e-15
      0.04004       287.986       288.519      0.159475      -4.26618      -6.80966             0        5.3741    -0.0074706             0       46.8637      -12.1967             0       24.5831             0             0      0.190305   1.29144e-15      0.172589        102237        103174        258267   2.36615e-15
    0.0405405       287.969        288.51       0.16372      -4.38423      -6.28195             0       5.49809   -0.00333432             0       47.7614      -12.4126             0       23.0328             0             0      0.190237    1.3241e-15      0.172885        102242        103176        257762     2.426e-15
     0.041041        287.95         288.5      0.168054      -4.50137      -5.75716             0        5.6195   0.000892173             0        48.671      -12.6193             0       21.4843             0             0      0.190166   1.35688e-15      0.173192        102247        103178        257279   2.48605e-15
    0.0415415       287.922       288.488      0.173385      -4.60821      -5.26502             0       5.71221    0.00612849             0       49.7145      -12.7221             0       19.9572             0             0      0.190065    1.3909e-15      0.173631        102250        103180        257032   2.54838e-15
     0.042042       287.892       288.477      0.178674      -4.70392      -4.77885             0       5.80093     0.0114124             0       50.7721      -12.8107             0       18.4302             0             0      0.189954   1.42516e-15      0.174114        102254        103182        256799   2.61116e-15
    0.0425425       287.858       288.465      0.183511      -4.67832       -4.3578             0       5.84624     0.0172148             0       51.9832      -12.7446             0       16.9039             0             0      0.189736   1.46207e-15      0.175062        102257        103184        256710   2.67878e-15
     0.043043       287.824       288.453      0.188247      -4.63911      -3.94456             0       5.88839     0.0225245             0       53.1489      -12.6502             0       15.3752             0             0      0.189507   1.49851e-15      0.176054        102260        103186        256637   2.74556e-15
    0.0435435       287.797       288.444      0.191914      -4.45517      -3.61437             0       5.89705     0.0225967             0       53.8325       -12.255             0       13.8219             0             0      0.189174   1.53005e-15      0.177506        102262        103188        256742   2.80333e-15
     0.044044        287.77       288.436      0.195562      -4.26188      -3.29042             0       5.90192     0.0217229             0       54.4425      -11.8276             0       12.2712             0             0      0.188833   1.56077e-15      0.178988        102265        103190        256855   2.85961e-15
    0.0445445        287.75        288.43       0.19901      -3.97168      -3.03107             0       5.86742     0.0110453             0       54.2906      -11.0672             0        10.748             0             0      0.188418   1.58304e-15      0.180789        102267        103192        257056   2.90042e-15
     0.045045        287.73       288.424       0.20231      -3.67784      -2.77458             0       5.82691   0.000172236             0       54.1076      -10.2817             0       9.23541             0             0      0.188007   1.60476e-15       0.18258        102269        103194        257264   2.94021e-15
    0.0455455       287.714       288.417      0.204116      -3.34715      -2.54689             0       5.72566     -0.012677             0       53.6099      -9.24261             0       7.82954             0             0      0.187619   1.62089e-15      0.184267        102271        103195        257539   2.96976e-15