#           y             T         TMean   TPrime2Mean           U_x           U_y           U_z       UMean_x       UMean_y       UMean_z UPrime2Mea... UPrime2Mea... UPrime2Mea... UPrime2Mea... UPrime2Mea... UPrime2Mea...            O2           H2O          C3H8             p         pMean   pPrime2Mean           CO2
  1.11022e-19       287.995       288.088      0.120799       21.2368  -1.85003e-16             0       19.8877  -2.06507e-16             0        23.042  -8.15264e-17             0   4.65984e-16             0             0      0.229095   3.50976e-14     0.0039353        102362        103163        223596   6.43053e-14
  0.000500501       288.087        288.09       0.12254       21.2316      0.158461             0       19.8899     0.0535208             0       23.0897    -0.0585679             0     0.0549761             0             0       0.22836   7.76938e-14    0.00712859        102362        103163        223546    1.4235e-13
     0.001001        288.18       288.093      0.124299       21.2264      0.316925             0       19.8922      0.107042             0       23.1376     -0.117123             0      0.110114             0             0      0.227622   1.20615e-13     0.0103373        102362        103163        223495   2.20989e-13
    0.0015015       288.827       288.103      0.135411       21.2264      0.476373             0       19.8999       0.16054             0       23.2765     -0.169072             0      0.246114             0             0      0.225116   3.25717e-13     0.0212367        102362        103163        223312   5.96774e-13
     0.002002        289.48       288.113      0.146729       21.2274      0.635704             0       19.9076      0.214039             0       23.4162     -0.221025             0      0.382549             0             0      0.222606   5.32572e-13     0.0321482        102362        103163        223128    9.7577e-13
    0.0025025       291.645       288.136      0.209392       21.4645      0.765548             0        19.922      0.267523             0       23.7472     -0.273755             0       0.62715             0             0      0.219404     1.176e-12     0.0460707        102362        103162        222846   2.15465e-12
     0.003003       293.828       288.158       0.27379       21.7057       0.89596             0       19.9365      0.321014             0       24.0794     -0.326384             0       0.87249             0             0      0.216208   1.82817e-12     0.0599671        102361        103162        222565   3.34954e-12
    0.0035035       299.011       288.198      0.625845       22.6146       1.12031             0       19.9671      0.375486             0       24.6117     -0.362239             0        1.2403             0             0      0.214007   3.92737e-12     0.0695351        102360        103162        222262   7.19568e-12
     0.004004       304.197       288.237      0.982334       23.5266       1.34396             0       19.9976      0.429993             0       25.1431     -0.397706             0       1.60919             0             0      0.211795   6.05301e-12     0.0791535        102359        103161        221959   1.10902e-11
    0.0045045       309.815       288.283        1.8888       24.8215       1.47974             0       20.0212      0.488834             0       25.5757     -0.385087             0       2.11163             0             0      0.208145   1.14557e-11     0.0950197        102356        103161        221622    2.0989e-11
   0.00500501       315.391       288.329       2.79384       26.1101       1.61204             0       20.0442       0.54773             0       26.0032      -0.37123             0       2.61513             0             0      0.204464   1.68718e-11      0.111026        102353        103160        221284   3.09123e-11
   0.00550551         316.9       288.363       3.55849       26.7754       1.39956             0       20.0098      0.611995             0       25.9232     -0.234897             0       3.22426             0             0      0.197591   2.36202e-11      0.140907        102346        103159        220935   4.32767e-11
   0.00600601       318.368       288.397       4.31343       27.4256       1.18551             0        19.974      0.676342             0        25.836    -0.0963063             0       3.83338             0             0      0.190708   3.02747e-11      0.170834        102339        103158        220588   5.54688e-11
   0.00650651       316.448        288.41       4.26974       26.8311       0.84317             0       19.8216      0.747517             0       25.1639       0.22822             0       4.44236             0             0      0.182967   2.91898e-11       0.20449        102330        103158        220304   5.34811e-11
   0.00700701       314.518       288.423       4.21911       26.2232      0.501069             0       19.6673      0.818753             0       24.4889      0.556305             0       5.05051             0             0      0.175273   2.80172e-11      0.237942        102321        103157        220020   5.13328e-11
   0.00750751       311.853       288.426       3.67966       24.6765      0.175771             0        19.371       0.89435             0       23.6044       1.13503             0       5.59911             0             0      0.170884     2.067e-11      0.257026        102314        103156        219661   3.78713e-11
   0.00800801       309.195        288.43       3.14071       23.1301     -0.148127             0       19.0729      0.969861             0       22.7227       1.71494             0       6.14726             0             0      0.166553   1.33751e-11      0.275859        102308        103156        219301   2.45056e-11
   0.00850851       306.938       288.439       2.63278       21.6023      -0.38588             0         18.66        1.0401             0       22.0023        2.3681             0       6.66712             0             0      0.165768   9.29726e-12      0.279272        102307        103155        218782   1.70343e-11
   0.00900901       304.695       288.449       2.13107       20.0829     -0.621123             0        18.246       1.10984             0       21.2889       3.01355             0       7.18916             0             0      0.164993   5.27469e-12      0.282639        102305        103154        218264   9.66421e-12
   0.00950951       303.172       288.465        1.9681       19.0212     -0.719452             0       17.7652       1.15216             0       20.9582       3.23889             0       7.82956             0             0      0.164794   4.26521e-12      0.283504        102307        103153        217746   7.81466e-12
      0.01001       301.659        288.48       1.80906       17.9676     -0.815573             0       17.2846        1.1939             0         20.65       3.45435             0       8.47443             0             0      0.164589   3.26608e-12      0.284395        102310        103152        217228   5.98407e-12
    0.0105105       300.568        288.49       1.84203       17.3061     -0.803434             0       16.8154       1.20738             0       21.4397       3.18632             0       9.33791             0             0      0.164092   2.77416e-12      0.286558        102315        103151        216750   5.08278e-12
     0.011011       299.479       288.498       1.87485       16.6512     -0.789016             0       16.3467       1.22061             0         22.27       2.91594             0       10.2039             0             0      0.163578   2.28345e-12      0.288792        102321        103150        216276   4.18371e-12
    0.0115115       298.499       288.486       1.90055       16.2942     -0.673278             0       15.8983       1.22305             0       24.9048       2.54094             0       11.1816             0             0      0.162347   1.84668e-12      0.294145        102327        103149        215962   3.38346e-12
     0.012012       297.519       288.474       1.92466       15.9418     -0.556997             0       15.4494       1.22551             0       27.5748       2.16693             0         12.16             0             0      0.161105   1.41425e-12      0.299542        102334        103147        215656   2.59116e-12
    0.0125125       296.528        288.45       1.88379       15.7785      -0.41865             0        14.984       1.22832             0       31.6757       1.83324             0       13.1697             0             0      0.159457   1.15839e-12       0.30671        102341        103146        215659   2.12238e-12
     0.013013       295.534       288.425       1.84011       15.6196      -0.28107             0       14.5198       1.23062             0       35.7798       1.49443             0       14.1844             0             0      0.157821   9.06319e-13      0.313821        102349        103144        215670   1.66055e-12
    0.0135135       294.413       288.402       1.69087       15.6223     -0.172237             0       14.1042       1.21355             0       40.0023      0.963783             0       15.3869             0             0      0.156671   7.96397e-13       0.31882        102354        103142        215998   1.45915e-12
     0.014014       293.297       288.378       1.53875       15.6283    -0.0621697             0        13.691       1.19589             0       44.1963      0.426524             0       16.5974             0             0      0.155539   6.88641e-13      0.323743        102360        103141        216334   1.26172e-12
    0.0145145        292.33       288.356       1.28651       15.7495     0.0907168             0       13.3627       1.15784             0       47.4048     -0.340204             0       18.0862             0             0      0.155011   6.56079e-13      0.326038        102363        103138        216926   1.20206e-12
     0.015015       291.373       288.335       1.03552       15.8738      0.248194             0       13.0353       1.11986             0       50.5747      -1.10655             0       19.5766             0             0      0.154514   6.23161e-13      0.328202        102367        103136        217526   1.14175e-12
    0.0155155       290.749       288.319      0.824833       16.0982      0.554111             0       12.7361       1.08391             0       52.5016      -1.86057             0       21.1177             0             0      0.154999   5.78716e-13      0.326092        102370        103134        218383   1.06032e-12
     0.016016       290.133       288.303      0.618217       16.3211      0.864417             0       12.4374       1.04862             0       54.3941      -2.60949             0       22.6566             0             0      0.155507   5.33011e-13      0.323884        102372        103132        219249   9.76576e-13
    0.0165165        289.82       288.299       0.53474       16.5006       1.30751             0        12.154       1.03333             0       55.2508        -3.204             0       24.1294             0             0      0.156693   4.49211e-13      0.318725        102373        103130        220345   8.23038e-13
     0.017017       289.512       288.295      0.453354       16.6708       1.75123             0       11.8715       1.01886             0       56.0852      -3.79496             0       25.6017             0             0      0.157864   3.65738e-13      0.313634        102373        103127        221446   6.70101e-13
    0.0175175       289.391         288.3      0.431383       16.5773       2.21259             0       11.6167       1.02787             0       56.2903      -4.28521             0       27.0608             0             0      0.158581   2.91581e-13      0.310516        102373        103126        222676   5.34231e-13
     0.018018       289.271       288.305      0.409838       16.4721       2.67543             0       11.3623       1.03779             0       56.4736      -4.77404             0       28.5212             0             0       0.15929   2.18401e-13      0.307434        102372        103124        223910   4.00151e-13
    0.0185185       289.211       288.313      0.399694       16.0545       3.17768             0       11.1184       1.07207             0       56.0755      -5.22442             0       30.0172             0             0      0.159771   1.71395e-13      0.305342        102371        103122        225219   3.14027e-13
     0.019019       289.152       288.321      0.389685       15.6287       3.68545             0       10.8742       1.10723             0       55.6445      -5.67177             0       31.5132             0             0      0.160248   1.25263e-13      0.303268        102370        103120        226528   2.29505e-13
    0.0195195       289.091       288.329       0.38307       14.9922       4.33299             0       10.6203       1.16499             0       54.3794      -6.04242             0       33.0071             0             0      0.160626   1.01266e-13      0.301625        102369        103119        227816   1.85538e-13
      0.02002       289.029       288.336      0.376475       14.3525       4.98653             0       10.3662       1.22378             0       53.0847      -6.40729             0       34.4986             0             0         0.161    7.7692e-14      0.300001        102368        103117        229101   1.42346e-13
    0.0205205       288.953       288.343      0.370324       13.6387       5.78428             0       10.1047       1.30741             0       51.0787      -6.63358             0       35.9317             0             0      0.161264   6.42628e-14       0.29885        102367        103115        230324   1.17741e-13
     0.021021       288.877       288.351      0.364282       12.9263       6.58526             0       9.84369       1.39211             0       49.0656      -6.85065             0       37.3622             0             0       0.16153   5.10373e-14      0.297694        102366        103114        231542   9.35099e-14
    0.0215215       288.778       288.358      0.360731       12.2455       7.45988             0       9.59513       1.50156             0       46.8881      -6.85729             0        38.733             0             0      0.161824   4.24592e-14      0.296417        102365        103113        232639   7.77932e-14
     0.022022       288.679       288.366      0.357405       11.5664       8.33526             0       9.34827       1.61211             0       44.7182      -6.85361             0       40.1014             0             0      0.162128   3.40337e-14      0.295095        102363        103111        233729   6.23561e-14
    0.0225225       288.563       288.373       0.35897       10.9216       9.22734             0       9.13819       1.74659             0       42.7138       -6.6258             0       41.4189             0             0      0.162663   2.89224e-14      0.292768        102360        103110        234663   5.29913e-14
     0.023023       288.447       288.379      0.360606       10.2743       10.1201             0       8.93017       1.88202             0       40.7098      -6.38829             0        42.736             0             0      0.163214   2.39111e-14      0.290374        102356        103109        235587   4.38097e-14
    0.0235235       288.324       288.383      0.363703       9.57502       11.0264             0       8.76515       2.03689             0       38.7142      -5.94947             0       44.0451             0             0       0.16409   2.09732e-14      0.286564        102352        103109        236324   3.84269e-14
     0.024024       288.201       288.387      0.366662       8.86929       11.9345             0       8.60159       2.19272             0       36.7117      -5.49759             0       45.3544             0             0      0.164978   1.80871e-14      0.282704        102347        103108        237051    3.3139e-14
    0.0245245       288.085       288.387      0.366866       8.03661       12.8775             0       8.46707       2.36764             0        34.571       -4.7867             0       46.6663             0             0      0.166091   1.62274e-14      0.277864        102343        103107        237579   2.97317e-14
     0.025025       287.971       288.387      0.366936       7.19941       13.8208             0        8.3335       2.54362             0       32.4348      -4.05685             0       47.9786             0             0      0.167202   1.43987e-14      0.273033        102338        103107        238091    2.6381e-14
    0.0255255       287.881       288.384      0.364455       6.27647       14.7717             0       8.21796       2.73972             0       30.3823      -2.96677             0        49.296             0             0      0.168273   1.31569e-14      0.268377        102333        103107        238292    2.4106e-14
     0.026026       287.795       288.381      0.361965        5.3579       15.7176             0       8.10327       2.93683             0       28.3587      -1.85473             0       50.6158             0             0      0.169323   1.19353e-14      0.263811        102328        103106        238473   2.18676e-14
    0.0265265       287.745       288.374      0.359309       4.51923       16.5725             0       8.00399       3.15247             0       26.8602     -0.342401             0       51.9773             0             0      0.169997   1.10787e-14      0.260883        102324        103106        238285   2.02982e-14
     0.027027       287.698       288.367      0.356653       3.69619       17.4145             0       7.90497       3.36883             0       25.4091       1.19086             0       53.3401             0             0      0.170642   1.02285e-14      0.258078        102320        103106        238077   1.87405e-14
    0.0275275       287.684       288.359      0.353988       3.14675       18.0298             0       7.81082       3.59774             0       24.7909       3.09078             0       54.7247             0             0      0.170792   9.48958e-15      0.257428        102317        103106        237519   1.73867e-14
     0.028028       287.671        288.35      0.351251       2.61917       18.6262             0       7.71606       3.82694             0       24.2201       5.00385             0       56.1015             0             0      0.170923   8.75145e-15      0.256856        102314        103106        236939   1.60343e-14
    0.0285285       287.678       288.342      0.347286       2.45992       18.9045             0       7.61124         4.061             0       24.4496       7.13852             0        57.346             0             0      0.170749   8.02672e-15      0.257613        102311        103107        236004   1.47064e-14
     0.029029       287.686       288.334      0.343215       2.31953       19.1649             0       7.50545       4.29506             0       24.7145       9.27255             0       58.5732             0             0      0.170563   7.30106e-15      0.258422        102309        103107        235056   1.33769e-14
    0.0295295       287.717       288.328      0.337411       2.48536       19.1346             0       7.38406       4.52911             0       25.5555       11.3962             0       59.5185             0             0       0.17018   6.56051e-15      0.260085        102307        103108        233906   1.20201e-14
      0.03003       287.751       288.323      0.331579       2.65968       19.0941             0       7.26209       4.76307             0        26.421       13.5063             0       60.4448             0             0      0.169782   5.81541e-15      0.261816        102305        103109        232747   1.06549e-14
    0.0305305       287.829       288.319      0.325301       2.96708        18.894             0         7.131       4.99569             0       27.6692       15.4037             0       61.0741             0             0      0.169141   4.99904e-15      0.264607        102303        103110        231449   9.15917e-15
     0.031031       287.912       288.315      0.319054        3.2734       18.6921             0        6.9998       5.22804             0       28.9369       17.2803             0       61.6884             0             0      0.168479   4.18698e-15      0.267483        102301        103111        230149   7.67134e-15
    0.0315315       288.058       288.311      0.313273       3.56342       18.4613             0       6.86682       5.45651             0       30.5013       18.8415             0       62.0753             0             0      0.167517   3.44033e-15      0.271667        102299        103112        228820   6.30333e-15
     0.032032       288.205       288.308      0.307572       3.85076       18.2295             0       6.73377       5.68428             0       32.0841       20.3786             0       62.4501             0             0      0.166544   2.70831e-15      0.275896        102297        103113        227499   4.96212e-15
    0.0325325       288.379       288.303      0.303049       4.09905       17.9838             0       6.59978       5.90173             0       33.9355       21.5651             0       62.6479             0             0      0.165415   2.19025e-15      0.280804        102296        103115        226292   4.01295e-15
     0.033033        288.55       288.298      0.298705       4.35482       17.7301             0       6.46546       6.11777             0       35.7999       22.7237             0       62.8317             0             0      0.164309   1.69195e-15      0.285615        102294        103116        225096   3.09997e-15
    0.0335335       288.678       288.292      0.296888       4.71642       17.3616             0       6.32652        6.3137             0       37.8491       23.4879             0       62.8167             0             0      0.163519   1.47317e-15      0.289046        102294        103118        224042   2.69912e-15
     0.034034       288.803       288.286      0.295268       5.10146       16.9781             0       6.18678       6.50736             0       39.9002       24.2177             0       62.7812             0             0      0.162768   1.26787e-15      0.292315        102294        103120        223004   2.32297e-15
    0.0345345       288.878       288.279      0.296344       5.80765       16.3881             0       6.03611       6.66998             0       41.9773       24.4768             0       62.4626             0             0      0.162531   1.24736e-15      0.293343        102295        103122        222171   2.28539e-15
     0.035035       288.953       288.272      0.297507        6.5413       15.7893             0       5.88388       6.82941             0       44.0454       24.6963             0        62.116             0             0      0.162333   1.23372e-15      0.294206        102297        103124        221357   2.26041e-15
    0.0355355       289.023       288.267      0.299824       7.63968       15.0759             0       5.71093       6.94651             0       45.9945       24.3893             0       61.3973             0             0      0.162643   1.31149e-15      0.292856        102303        103127        220809   2.40289e-15
     0.036036       289.093       288.262      0.302024       8.74709        14.362             0       5.53549       7.05963             0       47.9294       24.0417             0       60.6448             0             0      0.163069   1.39586e-15      0.291004        102309        103130        220280   2.55748e-15
    0.0365365       289.163       288.258      0.302717       9.97088        13.641             0        5.3279       7.12131             0       49.6805        23.169             0        59.455             0             0      0.164984   1.56533e-15      0.282676        102321        103133        220002   2.86799e-15
     0.037037        289.23       288.255      0.303232       11.1658       12.9252             0       5.11711       7.17851             0       51.4167        22.259             0       58.2278             0             0      0.167084    1.7353e-15       0.27355        102333        103136        219742   3.17939e-15
    0.0375375       289.251       288.254      0.301524       11.9998       12.2739             0       4.86635        7.1796             0       52.9657       20.8816             0       56.5321             0             0      0.171481   1.91136e-15      0.254428        102350        103139        219705   3.50197e-15
     0.038038       289.267       288.252      0.299725       12.7614       11.6431             0       4.61191       7.17612             0       54.5061       19.4769             0       54.7993             0             0      0.175843   2.07831e-15      0.235467        102367        103142        219689   3.80786e-15
    0.0385385       289.238       288.251      0.296807       12.6438       11.2623             0       4.31291       7.11703             0       55.9423       17.7404             0       52.6151             0             0      0.179755   2.13441e-15      0.218457        102384        103146        219917   3.91064e-15
     0.039039       289.204        288.25      0.293721       12.4496       10.8978             0       4.01024       7.05338             0       57.3778       15.9899             0       50.3995             0             0       0.18354   2.18185e-15      0.201999        102402        103150        220165   3.99756e-15
    0.0395395       289.128       288.249      0.288641       11.3488       10.7252             0        3.6643       6.93594             0       58.8055       14.0756             0       47.8134             0             0      0.185823   2.12697e-15      0.192072        102416        103154        220635     3.897e-15
      0.04004       289.036       288.248      0.283303       10.2018       10.5532             0       3.31599       6.81379             0       60.2192       12.1544             0       45.2075             0             0      0.188196   2.06033e-15      0.181756        102431        103158        221119    3.7749e-15
    0.0405405        288.76       288.249      0.275006       8.52328       10.3877             0       2.94049       6.63742             0       61.4713       10.1532             0       42.3739             0             0      0.191601   1.85848e-15      0.166952        102441        103163        221767   3.40509e-15
     0.041041       288.476        288.25      0.266578         6.829       10.2205             0       2.56503       6.45627             0        62.672       8.14748             0       39.5279             0             0      0.194998   1.64836e-15      0.152184        102452        103167        222420   3.02011e-15
    0.0415415       288.099       288.254      0.256685       4.95894       10.0348             0       2.19016       6.22156             0       63.2979       6.09009             0        36.544             0             0      0.198304    1.3456e-15      0.137807        102458        103172        223131   2.46539e-15
     0.042042       287.739       288.259      0.246767       3.11943       9.83573             0       1.81701       5.98241             0       63.8576       4.03741             0       33.5522             0             0      0.201352   1.05294e-15      0.124556        102465        103177        223843   1.92918e-15
    0.0425425       287.573       288.266      0.236576       1.61306       9.49009             0       1.46267       5.69483             0       63.6963       2.03597             0       30.4744             0             0      0.201575   8.70379e-16      0.123587        102470        103181        224575    1.5947e-15
     0.043043       287.424       288.273      0.226347      0.175101       9.11475             0       1.10958       5.40396             0       63.5073     0.0523486             0       27.3993             0             0      0.201563    6.9959e-16      0.123641        102475        103186        225312   1.28178e-15
    0.0435435       287.464       288.285      0.215719     -0.535872       8.42382             0      0.769847        5.0781             0       63.0246      -1.74196             0       24.3544             0             0      0.199048   6.53888e-16      0.134574        102479        103190        226112   1.19805e-15
     0.044044       287.509       288.297      0.205163      -1.18449       7.71027             0      0.432325       4.74944             0       62.5157      -3.49445             0       21.3255             0             0       0.19645   6.12282e-16       0.14587        102483        103195        226915   1.12181e-15
    0.0445445       287.616       288.313      0.195356       -1.1869       6.76235             0      0.117713       4.39191             0       61.7343      -4.81352             0       18.4638             0             0      0.192988   6.13121e-16      0.160921        102486        103199        227761   1.12335e-15
     0.045045        287.72       288.328      0.185963      -1.14281       5.80984             0     -0.192018       4.03103             0       60.8808       -6.0626             0       15.6264             0             0      0.189589   6.15511e-16      0.175702        102489        103203        228608   1.12773e-15
    0.0455455       287.802       288.341      0.180756     -0.628645       4.81095             0     -0.452389       3.63632             0       59.2978      -6.60412             0       13.0339             0             0       0.18682   6.33591e-16      0.187738        102489        103207        229474   1.16086e-15