# PROC_ID PARCEL_ID CellI X Y Z p Ux Uy Uz T C3H8 CO2 H2O N2 O2 largest_pointer wherePositive largest_pointerWP
2.000000e+00 2.830000e+02 2.024000e+03 1.401450e-01 3.854810e-02 5.000000e-04 1.115500e+05 3.305330e+01 -1.299130e+00 0.000000e+00 2.908830e+02 1.848330e-01 4.262490e-04 2.326450e-04 6.275690e-01 1.869390e-01 6.000000e+00 0.000000e+00 0.000000e+00
2.000000e+00 3.580000e+02 2.234000e+03 1.427150e-01 4.299630e-02 5.000000e-04 1.114470e+05 3.365780e+01 -5.468740e-01 0.000000e+00 2.905360e+02 1.807310e-01 2.694350e-04 1.470560e-04 6.307680e-01 1.880850e-01 9.000000e+00 0.000000e+00 0.000000e+00
2.000000e+00 2.070000e+02 1.246000e+03 1.428170e-01 2.355290e-02 5.000000e-04 1.110340e+05 5.644880e+01 -9.885650e+00 0.000000e+00 1.738520e+03 9.172240e-02 1.621170e-01 8.848300e-02 6.576770e-01 5.244790e-07 6.000000e+00 1.000000e+00 7.000000e+00
2.000000e+00 2.440000e+02 1.349000e+03 1.411150e-01 2.515490e-02 5.000000e-04 1.111660e+05 4.149870e+01 -7.256220e+00 0.000000e+00 1.748260e+03 9.676270e-02 1.601420e-01 8.740490e-02 6.543050e-01 1.385620e-03 6.000000e+00 1.000000e+00 7.000000e+00
2.000000e+00 3.190000e+02 1.917000e+03 1.375910e-01 3.685160e-02 5.000000e-04 1.118290e+05 3.464530e+01 2.397650e-01 0.000000e+00 2.921580e+02 1.825110e-01 3.494960e-03 1.907530e-03 6.285680e-01 1.835190e-01 7.000000e+00 0.000000e+00 0.000000e+00
2.000000e+00 3.570000e+02 1.917000e+03 1.370680e-01 3.690620e-02 5.000000e-04 1.118290e+05 3.464530e+01 2.397650e-01 0.000000e+00 2.921580e+02 1.825110e-01 3.494960e-03 1.907530e-03 6.285680e-01 1.835190e-01 7.000000e+00 0.000000e+00 0.000000e+00
2.000000e+00 3.960000e+02 2.076000e+03 1.403260e-01 3.984230e-02 5.000000e-04 1.115860e+05 3.352810e+01 -1.652180e+00 0.000000e+00 2.906960e+02 1.851730e-01 2.130120e-04 1.162610e-04 6.273620e-01 1.871350e-01 6.000000e+00 0.000000e+00 0.000000e+00
2.000000e+00 3.950000e+02 1.970000e+03 1.383320e-01 3.793800e-02 5.000000e-04 1.116810e+05 3.395030e+01 -1.288920e+00 0.000000e+00 2.912130e+02 1.830550e-01 1.575000e-03 8.596310e-04 6.286430e-01 1.858670e-01 1.000000e+01 0.000000e+00 0.000000e+00
2.000000e+00 3.610000e+02 2.391000e+03 1.432810e-01 4.557670e-02 5.000000e-04 1.112430e+05 3.401530e+01 -6.568870e-02 0.000000e+00 2.903950e+02 1.604390e-01 3.440430e-04 1.877770e-04 6.463730e-01 1.926560e-01 6.000000e+00 0.000000e+00 0.000000e+00
2.000000e+00 3.970000e+02 2.233000e+03 1.418930e-01 4.259500e-02 5.000000e-04 1.114550e+05 3.411600e+01 -8.893090e-01 0.000000e+00 2.905730e+02 1.829640e-01 5.282400e-04 2.883110e-04 6.289810e-01 1.872380e-01 6.000000e+00 0.000000e+00 0.000000e+00
2.000000e+00 2.840000e+02 2.547000e+03 1.435790e-01 4.805180e-02 5.000000e-04 1.112560e+05 3.290580e+01 9.388220e-01 0.000000e+00 2.903830e+02 1.439820e-01 3.577470e-05 1.952570e-05 6.591250e-01 1.968380e-01 9.000000e+00 0.000000e+00 0.000000e+00
2.000000e+00 3.940000e+02 1.968000e+03 1.362000e-01 3.726660e-02 5.000000e-04 1.118430e+05 3.453430e+01 3.239290e-01 0.000000e+00 2.943850e+02 1.790420e-01 6.986840e-03 3.813390e-03 6.303410e-01 1.798170e-01 7.000000e+00 0.000000e+00 0.000000e+00
2.000000e+00 1.710000e+02 2.495000e+03 1.433290e-01 4.797040e-02 5.000000e-04 1.112340e+05 3.434130e+01 1.016610e+00 0.000000e+00 2.903280e+02 1.442460e-01 1.028040e-04 5.611010e-05 6.589040e-01 1.966910e-01 9.000000e+00 0.000000e+00 0.000000e+00
2.000000e+00 4.330000e+02 2.075000e+03 1.392090e-01 3.936740e-02 5.000000e-04 1.115860e+05 3.375420e+01 -1.707910e+00 0.000000e+00 2.907090e+02 1.860000e-01 4.417840e-04 2.411240e-04 6.266670e-01 1.866500e-01 6.000000e+00 0.000000e+00 0.000000e+00
2.000000e+00 4.320000e+02 2.021000e+03 1.375180e-01 3.843550e-02 5.000000e-04 1.116010e+05 3.381910e+01 -3.683170e-01 0.000000e+00 2.925360e+02 1.848280e-01 4.256530e-03 2.323200e-03 6.265890e-01 1.820040e-01 6.000000e+00 0.000000e+00 0.000000e+00
2.000000e+00 3.930000e+02 1.967000e+03 1.350610e-01 3.711320e-02 5.000000e-04 1.118420e+05 3.517780e+01 1.362900e+00 0.000000e+00 3.043810e+02 1.741580e-01 1.555370e-02 8.489140e-03 6.318980e-01 1.699010e-01 6.000000e+00 0.000000e+00 0.000000e+00
2.000000e+00 2.820000e+02 1.501000e+03 1.372150e-01 2.857850e-02 5.000000e-04 1.113560e+05 3.538830e+01 -1.014100e+00 0.000000e+00 3.055190e+02 1.573640e-01 1.950070e-02 1.064340e-02 6.438130e-01 1.686790e-01 9.000000e+00 0.000000e+00 0.000000e+00
2.000000e+00 2.450000e+02 1.501000e+03 1.373290e-01 2.809650e-02 5.000000e-04 1.113560e+05 3.538830e+01 -1.014100e+00 0.000000e+00 3.055190e+02 1.573640e-01 1.950070e-02 1.064340e-02 6.438130e-01 1.686790e-01 9.000000e+00 0.000000e+00 0.000000e+00
2.000000e+00 4.310000e+02 2.020000e+03 1.364170e-01 3.858430e-02 5.000000e-04 1.116200e+05 3.403050e+01 5.481160e-01 0.000000e+00 2.943910e+02 1.847600e-01 6.375370e-03 3.479650e-03 6.260960e-01 1.792890e-01 9.000000e+00 0.000000e+00 0.000000e+00
2.000000e+00 3.910000e+02 2.019000e+03 1.351040e-01 3.843670e-02 5.000000e-04 1.116210e+05 3.481090e+01 1.667210e+00 0.000000e+00 2.998090e+02 1.829310e-01 1.065010e-02 5.812800e-03 6.264040e-01 1.742010e-01 6.000000e+00 0.000000e+00 0.000000e+00
2.000000e+00 3.180000e+02 1.603000e+03 1.359430e-01 3.051430e-02 5.000000e-04 1.115910e+05 3.570650e+01 -3.808910e-01 0.000000e+00 3.156780e+02 1.573720e-01 2.516960e-02 1.373750e-02 6.423480e-01 1.613720e-01 9.000000e+00 0.000000e+00 0.000000e+00
2.000000e+00 4.340000e+02 2.180000e+03 1.403450e-01 4.102800e-02 5.000000e-04 1.115130e+05 3.410790e+01 -1.660520e+00 0.000000e+00 2.906420e+02 1.893170e-01 5.888140e-04 3.213720e-04 6.240740e-01 1.856990e-01 6.000000e+00 0.000000e+00 0.000000e+00
2.000000e+00 3.560000e+02 1.759000e+03 1.351740e-01 3.317000e-02 5.000000e-04 1.118130e+05 3.570080e+01 3.821370e-01 0.000000e+00 3.122940e+02 1.707190e-01 2.236580e-02 1.220720e-02 6.327930e-01 1.619150e-01 6.000000e+00 0.000000e+00 0.000000e+00
2.000000e+00 3.920000e+02 1.966000e+03 1.345960e-01 3.705020e-02 5.000000e-04 1.115350e+05 3.746140e+01 1.978200e+00 0.000000e+00 3.446870e+02 1.610920e-01 3.583360e-02 1.955790e-02 6.367420e-01 1.467740e-01 1.000000e+01 0.000000e+00 0.000000e+00
2.000000e+00 2.790000e+02 1.448000e+03 1.360790e-01 2.775500e-02 5.000000e-04 1.114570e+05 3.290720e+01 -1.719210e+00 0.000000e+00 3.648480e+02 1.321250e-01 5.405080e-02 2.950070e-02 6.543590e-01 1.299650e-01 7.000000e+00 0.000000e+00 0.000000e+00
2.000000e+00 3.220000e+02 2.338000e+03 1.420460e-01 4.482690e-02 5.000000e-04 1.113290e+05 3.438270e+01 -9.639450e-02 0.000000e+00 2.904780e+02 1.703290e-01 6.126070e-04 3.343580e-04 6.386880e-01 1.900360e-01 9.000000e+00 0.000000e+00 0.000000e+00
2.000000e+00 2.800000e+02 1.500000e+03 1.363510e-01 2.845860e-02 5.000000e-04 1.114500e+05 3.545970e+01 -8.027450e-01 0.000000e+00 3.304140e+02 1.447320e-01 4.028000e-02 2.198460e-02 6.481940e-01 1.448100e-01 6.000000e+00 0.000000e+00 0.000000e+00
2.000000e+00 2.780000e+02 1.500000e+03 1.360780e-01 2.800410e-02 5.000000e-04 1.114500e+05 3.545970e+01 -8.027450e-01 0.000000e+00 3.304140e+02 1.447320e-01 4.028000e-02 2.198460e-02 6.481940e-01 1.448100e-01 6.000000e+00 0.000000e+00 0.000000e+00
2.000000e+00 3.510000e+02 1.862000e+03 1.347390e-01 3.509230e-02 5.000000e-04 1.116800e+05 3.884300e+01 2.022770e+00 0.000000e+00 3.904290e+02 1.454070e-01 5.406450e-02 2.950820e-02 6.441300e-01 1.268900e-01 9.000000e+00 0.000000e+00 0.000000e+00
2.000000e+00 2.810000e+02 1.551000e+03 1.353780e-01 2.908920e-02 5.000000e-04 1.114720e+05 3.372030e+01 -3.013930e+00 0.000000e+00 3.090140e+02 1.481950e-01 3.017290e-02 1.646830e-02 6.481270e-01 1.570370e-01 9.000000e+00 0.000000e+00 0.000000e+00
2.000000e+00 2.770000e+02 1.500000e+03 1.361510e-01 2.831950e-02 5.000000e-04 1.114500e+05 3.545970e+01 -8.027450e-01 0.000000e+00 3.304140e+02 1.447320e-01 4.028000e-02 2.198460e-02 6.481940e-01 1.448100e-01 6.000000e+00 0.000000e+00 0.000000e+00
2.000000e+00 3.550000e+02 1.603000e+03 1.350310e-01 3.085940e-02 5.000000e-04 1.115910e+05 3.570650e+01 -3.808910e-01 0.000000e+00 3.156780e+02 1.573720e-01 2.516960e-02 1.373750e-02 6.423480e-01 1.613720e-01 9.000000e+00 0.000000e+00 0.000000e+00
2.000000e+00 1.920000e+02 2.071000e+03 1.352270e-01 3.977480e-02 5.000000e-04 1.114160e+05 3.426840e+01 8.887140e-01 0.000000e+00 2.959840e+02 2.042950e-01 7.368260e-03 4.021570e-03 6.107990e-01 1.735170e-01 6.000000e+00 0.000000e+00 0.000000e+00
2.000000e+00 2.390000e+02 1.399000e+03 1.397060e-01 2.657930e-02 5.000000e-04 1.114850e+05 4.257580e+01 1.377070e+00 0.000000e+00 6.440800e+02 1.140690e-01 1.017190e-01 5.551800e-02 6.560010e-01 7.269250e-02 6.000000e+00 0.000000e+00 0.000000e+00
2.000000e+00 3.170000e+02 1.602000e+03 1.348620e-01 3.052480e-02 5.000000e-04 1.113740e+05 4.014970e+01 -9.651610e-01 0.000000e+00 3.992080e+02 1.280990e-01 5.679030e-02 3.099590e-02 6.567550e-01 1.273600e-01 6.000000e+00 0.000000e+00 0.000000e+00
2.000000e+00 2.360000e+02 1.965000e+03 1.337940e-01 3.778380e-02 5.000000e-04 1.118670e+05 3.786610e+01 4.827790e+00 0.000000e+00 5.124240e+02 1.277790e-01 8.481260e-02 4.629040e-02 6.497960e-01 9.132220e-02 6.000000e+00 0.000000e+00 0.000000e+00
2.000000e+00 1.940000e+02 2.072000e+03 1.367910e-01 3.985940e-02 5.000000e-04 1.114300e+05 3.390840e+01 -1.750910e-01 0.000000e+00 2.933720e+02 2.040660e-01 5.221020e-03 2.849610e-03 6.115270e-01 1.763360e-01 8.000000e+00 0.000000e+00 0.000000e+00
2.000000e+00 2.760000e+02 1.499000e+03 1.354030e-01 2.885950e-02 5.000000e-04 1.115640e+05 3.677700e+01 -7.504970e-01 0.000000e+00 3.988870e+02 1.246050e-01 7.293780e-02 3.980910e-02 6.552900e-01 1.073570e-01 9.000000e+00 0.000000e+00 0.000000e+00
2.000000e+00 1.930000e+02 2.125000e+03 1.373130e-01 4.000120e-02 5.000000e-04 1.113610e+05 3.391270e+01 -5.953770e-01 0.000000e+00 2.914330e+02 2.298970e-01 2.570500e-03 1.402970e-03 5.923180e-01 1.738120e-01 8.000000e+00 0.000000e+00 0.000000e+00
2.000000e+00 1.240000e+02 2.121000e+03 1.339900e-01 4.047700e-02 5.000000e-04 1.113340e+05 3.503190e+01 3.586370e+00 0.000000e+00 3.383540e+02 2.124150e-01 2.666230e-02 1.455220e-02 5.995820e-01 1.467890e-01 8.000000e+00 0.000000e+00 0.000000e+00
2.000000e+00 8.000000e+01 2.327000e+03 1.318810e-01 4.457850e-02 5.000000e-04 1.110020e+05 3.589040e+01 1.855240e+01 0.000000e+00 6.534850e+02 1.716760e-01 1.015200e-01 5.540930e-02 6.116300e-01 5.976460e-02 6.000000e+00 0.000000e+00 0.000000e+00
2.000000e+00 3.540000e+02 1.706000e+03 1.343350e-01 3.235870e-02 5.000000e-04 1.113830e+05 3.993490e+01 2.227790e+00 0.000000e+00 3.879600e+02 1.408260e-01 5.313960e-02 2.900340e-02 6.478950e-01 1.291360e-01 8.000000e+00 0.000000e+00 0.000000e+00
2.000000e+00 3.520000e+02 1.706000e+03 1.343660e-01 3.268000e-02 5.000000e-04 1.113830e+05 3.993490e+01 2.227790e+00 0.000000e+00 3.879600e+02 1.408260e-01 5.313960e-02 2.900340e-02 6.478950e-01 1.291360e-01 8.000000e+00 0.000000e+00 0.000000e+00
2.000000e+00 3.980000e+02 2.336000e+03 1.406420e-01 4.440400e-02 5.000000e-04 1.113220e+05 3.574410e+01 -4.596500e-02 0.000000e+00 2.910340e+02 2.017650e-01 3.478120e-03 1.898340e-03 6.137410e-01 1.791180e-01 6.000000e+00 0.000000e+00 0.000000e+00
2.000000e+00 3.530000e+02 1.758000e+03 1.341440e-01 3.319670e-02 5.000000e-04 1.115510e+05 3.877400e+01 1.643090e+00 0.000000e+00 3.779160e+02 1.456660e-01 5.127290e-02 2.798450e-02 6.446490e-01 1.304280e-01 1.000000e+01 0.000000e+00 0.000000e+00
2.000000e+00 3.160000e+02 1.653000e+03 1.338110e-01 3.127050e-02 5.000000e-04 1.121480e+05 3.783340e+01 -2.954850e-01 0.000000e+00 5.218210e+02 1.070480e-01 8.690440e-02 4.743210e-02 6.652190e-01 9.339570e-02 9.000000e+00 0.000000e+00 0.000000e+00
2.000000e+00 2.740000e+02 2.431000e+03 1.313800e-01 4.635920e-02 5.000000e-04 1.112070e+05 3.631550e+01 2.049880e+01 0.000000e+00 7.034550e+02 1.733030e-01 1.151480e-01 6.284720e-02 6.068530e-01 4.184890e-02 6.000000e+00 0.000000e+00 0.000000e+00
2.000000e+00 1.230000e+02 2.277000e+03 1.338320e-01 4.315380e-02 5.000000e-04 1.113020e+05 3.200460e+01 4.379280e+00 0.000000e+00 3.143080e+02 2.670240e-01 2.017090e-02 1.100920e-02 5.591880e-01 1.426080e-01 7.000000e+00 0.000000e+00 0.000000e+00
2.000000e+00 4.350000e+02 2.438000e+03 1.387500e-01 4.604310e-02 5.000000e-04 1.112020e+05 3.572780e+01 -3.384910e-01 0.000000e+00 2.936920e+02 2.303410e-01 1.105060e-02 6.031350e-03 5.897780e-01 1.627990e-01 6.000000e+00 0.000000e+00 0.000000e+00
2.000000e+00 2.680000e+02 2.230000e+03 1.385900e-01 4.289270e-02 5.000000e-04 1.113220e+05 3.513100e+01 -1.130650e+00 0.000000e+00 2.915910e+02 2.562600e-01 4.338960e-03 2.368190e-03 5.715570e-01 1.654760e-01 6.000000e+00 0.000000e+00 0.000000e+00
2.000000e+00 3.150000e+02 1.862000e+03 1.341140e-01 3.522200e-02 5.000000e-04 1.116800e+05 3.884300e+01 2.022770e+00 0.000000e+00 3.904290e+02 1.454070e-01 5.406450e-02 2.950820e-02 6.441300e-01 1.268900e-01 9.000000e+00 0.000000e+00 0.000000e+00
2.000000e+00 1.600000e+02 2.485000e+03 1.332760e-01 4.725810e-02 5.000000e-04 1.114910e+05 3.942940e+01 -3.313800e+00 0.000000e+00 3.494290e+02 2.141120e-01 4.200380e-02 2.292550e-02 5.942850e-01 1.266740e-01 6.000000e+00 0.000000e+00 0.000000e+00
2.000000e+00 8.400000e+01 2.435000e+03 1.352380e-01 4.605360e-02 5.000000e-04 1.112460e+05 3.809310e+01 -3.663150e+00 0.000000e+00 3.051110e+02 2.365190e-01 2.286070e-02 1.247730e-02 5.819710e-01 1.461720e-01 7.000000e+00 0.000000e+00 0.000000e+00
2.000000e+00 2.380000e+02 2.227000e+03 1.353680e-01 4.289410e-02 5.000000e-04 1.111390e+05 3.304550e+01 -1.775930e-01 0.000000e+00 2.936410e+02 2.816300e-01 6.761530e-03 3.690420e-03 5.513980e-01 1.565210e-01 7.000000e+00 0.000000e+00 0.000000e+00
2.000000e+00 2.650000e+02 2.281000e+03 1.372300e-01 4.375980e-02 5.000000e-04 1.112080e+05 3.534840e+01 -2.096370e+00 0.000000e+00 2.932730e+02 2.750740e-01 8.644490e-03 4.718130e-03 5.559570e-01 1.556070e-01 6.000000e+00 0.000000e+00 0.000000e+00
2.000000e+00 1.910000e+02 1.653000e+03 1.332580e-01 3.118710e-02 5.000000e-04 1.121480e+05 3.783340e+01 -2.954850e-01 0.000000e+00 5.218210e+02 1.070480e-01 8.690440e-02 4.743210e-02 6.652190e-01 9.339570e-02 9.000000e+00 0.000000e+00 0.000000e+00
2.000000e+00 2.370000e+02 2.435000e+03 1.354390e-01 4.637800e-02 5.000000e-04 1.112460e+05 3.809310e+01 -3.663150e+00 0.000000e+00 3.051110e+02 2.365190e-01 2.286070e-02 1.247730e-02 5.819710e-01 1.461720e-01 7.000000e+00 0.000000e+00 0.000000e+00
2.000000e+00 3.900000e+02 2.384000e+03 1.369320e-01 4.554600e-02 5.000000e-04 1.111630e+05 3.677490e+01 -3.282480e+00 0.000000e+00 2.974690e+02 2.519940e-01 1.606480e-02 8.768090e-03 5.718090e-01 1.513630e-01 7.000000e+00 0.000000e+00 0.000000e+00
2.000000e+00 1.220000e+02 2.536000e+03 1.322180e-01 4.861600e-02 5.000000e-04 1.110740e+05 3.864320e+01 -2.002610e+00 0.000000e+00 3.495390e+02 2.117110e-01 3.935300e-02 2.147870e-02 5.968170e-01 1.306400e-01 8.000000e+00 0.000000e+00 0.000000e+00
2.000000e+00 2.320000e+02 1.757000e+03 1.337260e-01 3.303130e-02 5.000000e-04 1.117160e+05 4.027660e+01 5.570260e+00 0.000000e+00 6.491890e+02 9.211650e-02 1.163510e-01 6.350390e-02 6.691440e-01 5.888480e-02 6.000000e+00 0.000000e+00 0.000000e+00
2.000000e+00 1.190000e+02 2.569000e+03 1.136260e-01 4.967060e-02 5.000000e-04 1.114440e+05 1.828800e+01 1.900080e-01 0.000000e+00 3.115780e+02 2.681840e-01 5.988050e-03 3.268250e-03 5.619440e-01 1.606150e-01 6.000000e+00 0.000000e+00 0.000000e+00
2.000000e+00 1.570000e+02 2.568000e+03 1.122220e-01 4.963330e-02 5.000000e-04 1.113210e+05 1.791580e+01 2.766910e-01 0.000000e+00 3.076720e+02 2.613430e-01 3.159740e-03 1.724580e-03 5.679470e-01 1.658260e-01 2.000000e+00 0.000000e+00 0.000000e+00
2.000000e+00 4.220000e+02 2.420000e+03 1.203670e-01 4.627900e-02 5.000000e-04 1.116990e+05 2.824450e+01 1.488410e+00 0.000000e+00 6.472720e+02 2.495730e-01 4.187380e-02 2.285460e-02 5.669770e-01 1.187210e-01 6.000000e+00 0.000000e+00 0.000000e+00
2.000000e+00 1.950000e+02 2.470000e+03 1.187450e-01 4.767160e-02 5.000000e-04 1.115040e+05 2.475500e+01 -2.082310e+00 0.000000e+00 4.177310e+02 2.658560e-01 2.444110e-02 1.333980e-02 5.589530e-01 1.374100e-01 1.100000e+01 0.000000e+00 0.000000e+00
2.000000e+00 2.850000e+02 2.577000e+03 1.212960e-01 4.933620e-02 5.000000e-04 1.116640e+05 2.192010e+01 6.037400e-01 0.000000e+00 3.517160e+02 2.352370e-01 4.412700e-02 2.408430e-02 5.774410e-01 1.191110e-01 9.000000e+00 0.000000e+00 0.000000e+00
2.000000e+00 5.060000e+02 2.572000e+03 1.166910e-01 4.919730e-02 5.000000e-04 1.116730e+05 1.991590e+01 1.578910e-01 0.000000e+00 3.199080e+02 2.716870e-01 1.280090e-02 6.986710e-03 5.574800e-01 1.510450e-01 9.000000e+00 0.000000e+00 0.000000e+00
2.000000e+00 5.050000e+02 2.522000e+03 1.182030e-01 4.826780e-02 5.000000e-04 1.115980e+05 2.276510e+01 -4.352400e-01 0.000000e+00 3.655060e+02 2.628510e-01 2.202640e-02 1.202190e-02 5.618930e-01 1.412070e-01 1.000000e+01 0.000000e+00 0.000000e+00
2.000000e+00 2.660000e+02 2.566000e+03 1.105000e-01 4.952510e-02 5.000000e-04 1.112310e+05 1.708380e+01 4.570920e-01 0.000000e+00 3.032650e+02 2.483330e-01 1.428830e-03 7.798520e-04 5.784140e-01 1.710440e-01 8.000000e+00 0.000000e+00 0.000000e+00
2.000000e+00 5.030000e+02 2.418000e+03 1.187310e-01 4.646440e-02 5.000000e-04 1.115020e+05 2.615700e+01 -2.091820e+00 0.000000e+00 4.270080e+02 2.671210e-01 2.569060e-02 1.402180e-02 5.576490e-01 1.355170e-01 6.000000e+00 0.000000e+00 0.000000e+00
2.000000e+00 6.420000e+02 1.030000e+02 1.439230e-01 1.492470e-03 5.000000e-04 1.112340e+05 4.779840e+01 1.581540e-01 0.000000e+00 3.523460e+02 7.921800e-03 1.500280e-02 8.188450e-03 7.600420e-01 2.088450e-01 9.000000e+00 0.000000e+00 0.000000e+00
2.000000e+00 6.410000e+02 5.000000e+01 1.427200e-01 8.013020e-04 5.000000e-04 1.112600e+05 4.597920e+01 -1.811340e-01 0.000000e+00 2.980780e+02 4.093550e-03 3.033260e-03 1.655540e-03 7.660680e-01 2.251500e-01 6.000000e+00 0.000000e+00 0.000000e+00
2.000000e+00 6.400000e+02 5.000000e+01 1.423970e-01 4.767870e-04 5.000000e-04 1.112600e+05 4.597920e+01 -1.811340e-01 0.000000e+00 2.980780e+02 4.093550e-03 3.033260e-03 1.655540e-03 7.660680e-01 2.251500e-01 6.000000e+00 0.000000e+00 0.000000e+00
2.000000e+00 6.390000e+02 5.000000e+01 1.422010e-01 2.124730e-04 5.000000e-04 1.112600e+05 4.597920e+01 -1.811340e-01 0.000000e+00 2.980780e+02 4.093550e-03 3.033260e-03 1.655540e-03 7.660680e-01 2.251500e-01 6.000000e+00 0.000000e+00 0.000000e+00
2.000000e+00 6.380000e+02 5.000000e+01 1.421180e-01 0.000000e+00 5.000000e-04 1.112600e+05 4.597920e+01 -1.811340e-01 0.000000e+00 2.980780e+02 4.093550e-03 3.033260e-03 1.655540e-03 7.660680e-01 2.251500e-01 6.000000e+00 0.000000e+00 0.000000e+00
2.000000e+00 5.040000e+02 2.318000e+03 1.227590e-01 4.465900e-02 5.000000e-04 1.115830e+05 4.511120e+01 -5.976420e+00 0.000000e+00 1.446060e+03 2.000220e-01 1.428620e-01 7.797380e-02 5.791270e-01 1.440120e-05 6.000000e+00 1.000000e+00 7.000000e+00
2.000000e+00 4.760000e+02 2.472000e+03 1.207010e-01 4.731060e-02 5.000000e-04 1.115920e+05 2.761440e+01 5.952400e-01 0.000000e+00 5.897920e+02 2.416510e-01 4.206230e-02 2.295740e-02 5.730240e-01 1.203060e-01 6.000000e+00 0.000000e+00 0.000000e+00
2.000000e+00 5.500000e+02 2.472000e+03 1.207350e-01 4.740720e-02 5.000000e-04 1.115920e+05 2.761440e+01 5.952400e-01 0.000000e+00 5.897920e+02 2.416510e-01 4.206230e-02 2.295740e-02 5.730240e-01 1.203060e-01 6.000000e+00 0.000000e+00 0.000000e+00
2.000000e+00 5.350000e+02 2.526000e+03 1.222190e-01 4.859770e-02 5.000000e-04 1.115910e+05 2.659050e+01 -6.731240e-01 0.000000e+00 4.878060e+02 2.242030e-01 5.565150e-02 3.037440e-02 5.829560e-01 1.068150e-01 9.000000e+00 0.000000e+00 0.000000e+00
2.000000e+00 5.370000e+02 2.525000e+03 1.215580e-01 4.842720e-02 5.000000e-04 1.117550e+05 2.533660e+01 -9.985350e-01 0.000000e+00 4.927910e+02 2.269710e-01 5.311380e-02 2.898930e-02 5.814790e-01 1.094460e-01 1.000000e+01 0.000000e+00 0.000000e+00
2.000000e+00 4.260000e+02 2.270000e+03 1.260050e-01 4.372430e-02 5.000000e-04 1.113740e+05 5.224530e+01 8.192010e-01 0.000000e+00 1.498480e+03 1.471860e-01 1.523380e-01 8.314560e-02 6.173300e-01 5.594610e-11 6.000000e+00 1.000000e+00 7.000000e+00
2.000000e+00 5.420000e+02 2.533000e+03 1.299350e-01 4.873140e-02 5.000000e-04 1.116350e+05 2.238030e+01 5.825540e+00 0.000000e+00 7.599960e+02 1.796650e-01 1.080000e-01 5.894580e-02 6.037840e-01 4.960530e-02 6.000000e+00 0.000000e+00 0.000000e+00
2.000000e+00 2.750000e+02 2.464000e+03 1.129090e-01 4.778710e-02 5.000000e-04 1.114550e+05 2.242340e+01 4.843670e-01 0.000000e+00 3.341930e+02 2.697800e-01 7.707620e-03 4.206790e-03 5.602730e-01 1.580330e-01 9.000000e+00 0.000000e+00 0.000000e+00
2.000000e+00 4.700000e+02 2.562000e+03 1.067450e-01 4.948720e-02 5.000000e-04 1.115800e+05 1.681480e+01 9.422160e-01 0.000000e+00 3.005040e+02 2.208520e-01 2.222430e-03 1.213000e-03 5.993720e-01 1.763410e-01 9.000000e+00 0.000000e+00 0.000000e+00
2.000000e+00 1.550000e+02 2.514000e+03 1.109400e-01 4.880130e-02 5.000000e-04 1.112890e+05 2.032410e+01 -8.647910e-02 0.000000e+00 3.109810e+02 2.508110e-01 2.689800e-03 1.468080e-03 5.761810e-01 1.688510e-01 1.100000e+01 0.000000e+00 0.000000e+00
2.000000e+00 2.670000e+02 2.515000e+03 1.119760e-01 4.805310e-02 5.000000e-04 1.113230e+05 2.070450e+01 -6.735240e-02 0.000000e+00 3.126050e+02 2.568290e-01 2.555900e-03 1.395000e-03 5.715800e-01 1.676400e-01 6.000000e+00 0.000000e+00 0.000000e+00
2.000000e+00 5.360000e+02 2.366000e+03 1.182770e-01 4.527300e-02 5.000000e-04 1.114640e+05 2.758150e+01 -1.397650e+00 0.000000e+00 5.070590e+02 2.418260e-01 4.697740e-02 2.564010e-02 5.716210e-01 1.139360e-01 9.000000e+00 0.000000e+00 0.000000e+00
2.000000e+00 4.690000e+02 2.564000e+03 1.081160e-01 4.928430e-02 5.000000e-04 1.113420e+05 1.668200e+01 6.574370e-01 0.000000e+00 3.016900e+02 2.368980e-01 1.454830e-03 7.940390e-04 5.872140e-01 1.736390e-01 8.000000e+00 0.000000e+00 0.000000e+00
2.000000e+00 1.980000e+02 2.413000e+03 1.134220e-01 4.609010e-02 5.000000e-04 1.115430e+05 2.618710e+01 -6.198280e-02 0.000000e+00 3.784530e+02 2.654560e-01 2.243080e-02 1.224270e-02 5.597880e-01 1.400820e-01 9.000000e+00 0.000000e+00 0.000000e+00
2.000000e+00 6.830000e+02 1.460000e+02 1.348170e-01 2.217720e-03 5.000000e-04 1.114090e+05 5.499720e+01 -1.073440e+00 0.000000e+00 7.260680e+02 6.010100e-03 5.620470e-02 3.067630e-02 7.509170e-01 1.561920e-01 6.000000e+00 0.000000e+00 0.000000e+00
2.000000e+00 6.760000e+02 3.700000e+01 1.294040e-01 0.000000e+00 5.000000e-04 1.114340e+05 4.491340e+01 -9.552590e-02 0.000000e+00 3.042400e+02 4.907730e-03 4.253510e-03 2.321550e-03 7.651270e-01 2.233900e-01 8.000000e+00 0.000000e+00 0.000000e+00
2.000000e+00 6.770000e+02 3.700000e+01 1.295830e-01 6.025360e-04 5.000000e-04 1.114340e+05 4.491340e+01 -9.552590e-02 0.000000e+00 3.042400e+02 4.907730e-03 4.253510e-03 2.321550e-03 7.651270e-01 2.233900e-01 8.000000e+00 0.000000e+00 0.000000e+00
2.000000e+00 6.780000e+02 3.700000e+01 1.295190e-01 6.867400e-04 5.000000e-04 1.114340e+05 4.491340e+01 -9.552590e-02 0.000000e+00 3.042400e+02 4.907730e-03 4.253510e-03 2.321550e-03 7.651270e-01 2.233900e-01 8.000000e+00 0.000000e+00 0.000000e+00
2.000000e+00 2.300000e+02 2.462000e+03 1.100850e-01 4.788950e-02 5.000000e-04 1.113910e+05 2.099020e+01 1.018480e+00 0.000000e+00 3.368450e+02 2.517400e-01 1.343060e-02 7.330350e-03 5.726900e-01 1.548090e-01 8.000000e+00 0.000000e+00 0.000000e+00
2.000000e+00 6.790000e+02 3.700000e+01 1.293780e-01 7.494060e-04 5.000000e-04 1.114340e+05 4.491340e+01 -9.552590e-02 0.000000e+00 3.042400e+02 4.907730e-03 4.253510e-03 2.321550e-03 7.651270e-01 2.233900e-01 8.000000e+00 0.000000e+00 0.000000e+00
2.000000e+00 6.820000e+02 9.100000e+01 1.316070e-01 1.699930e-03 5.000000e-04 1.114130e+05 4.711410e+01 -7.889290e-01 0.000000e+00 3.781420e+02 8.532100e-03 1.852860e-02 1.011290e-02 7.586650e-01 2.041610e-01 9.000000e+00 0.000000e+00 0.000000e+00
2.000000e+00 6.800000e+02 3.700000e+01 1.293680e-01 8.831720e-04 5.000000e-04 1.114340e+05 4.491340e+01 -9.552590e-02 0.000000e+00 3.042400e+02 4.907730e-03 4.253510e-03 2.321550e-03 7.651270e-01 2.233900e-01 8.000000e+00 0.000000e+00 0.000000e+00
2.000000e+00 6.810000e+02 8.900000e+01 1.297560e-01 1.170970e-03 5.000000e-04 1.114140e+05 4.672430e+01 -8.263730e-01 0.000000e+00 3.776450e+02 8.261960e-03 1.854490e-02 1.012170e-02 7.588690e-01 2.042020e-01 8.000000e+00 0.000000e+00 0.000000e+00
2.000000e+00 4.280000e+02 2.361000e+03 1.132260e-01 4.572140e-02 5.000000e-04 1.116860e+05 3.023940e+01 -3.615390e-01 0.000000e+00 6.075780e+02 2.038350e-01 7.826350e-02 4.271590e-02 5.928410e-01 8.234450e-02 6.000000e+00 0.000000e+00 0.000000e+00
2.000000e+00 4.680000e+02 2.563000e+03 1.076030e-01 4.913960e-02 5.000000e-04 1.114440e+05 1.671960e+01 8.034370e-01 0.000000e+00 3.008670e+02 2.273220e-01 1.769960e-03 9.660360e-04 5.945060e-01 1.754360e-01 6.000000e+00 0.000000e+00 0.000000e+00
2.000000e+00 4.670000e+02 2.563000e+03 1.076540e-01 4.910900e-02 5.000000e-04 1.114440e+05 1.671960e+01 8.034370e-01 0.000000e+00 3.008670e+02 2.273220e-01 1.769960e-03 9.660360e-04 5.945060e-01 1.754360e-01 6.000000e+00 0.000000e+00 0.000000e+00
2.000000e+00 4.710000e+02 2.562000e+03 1.060280e-01 4.933570e-02 5.000000e-04 1.115800e+05 1.681480e+01 9.422160e-01 0.000000e+00 3.005040e+02 2.208520e-01 2.222430e-03 1.213000e-03 5.993720e-01 1.763410e-01 9.000000e+00 0.000000e+00 0.000000e+00
2.000000e+00 7.200000e+02 1.440000e+02 1.321620e-01 2.584920e-03 5.000000e-04 1.114180e+05 5.484370e+01 -1.040210e+00 0.000000e+00 7.380630e+02 5.422370e-03 5.683530e-02 3.102050e-02 7.512080e-01 1.555140e-01 6.000000e+00 0.000000e+00 0.000000e+00
2.000000e+00 7.190000e+02 1.370000e+02 1.252190e-01 2.126530e-03 5.000000e-04 1.114180e+05 5.415320e+01 -6.888610e-01 0.000000e+00 7.278570e+02 3.540100e-03 4.900010e-02 2.674410e-02 7.546720e-01 1.660440e-01 6.000000e+00 0.000000e+00 0.000000e+00
2.000000e+00 4.290000e+02 2.458000e+03 1.067130e-01 4.718940e-02 5.000000e-04 1.115050e+05 2.174100e+01 2.060770e+00 0.000000e+00 3.593300e+02 2.167300e-01 2.547150e-02 1.390230e-02 5.965400e-01 1.473560e-01 1.000000e+01 0.000000e+00 0.000000e+00
2.000000e+00 7.180000e+02 8.300000e+01 1.231270e-01 1.967190e-03 5.000000e-04 1.114410e+05 4.562440e+01 -2.348140e-01 0.000000e+00 3.657700e+02 5.214710e-03 1.605350e-02 8.761940e-03 7.618560e-01 2.081130e-01 8.000000e+00 0.000000e+00 0.000000e+00
2.000000e+00 7.170000e+02 7.800000e+01 1.184090e-01 1.028750e-03 5.000000e-04 1.115510e+05 4.559320e+01 -6.578650e-03 0.000000e+00 3.655930e+02 3.797620e-03 1.377840e-02 7.520200e-03 7.635330e-01 2.113710e-01 9.000000e+00 0.000000e+00 0.000000e+00
2.000000e+00 7.160000e+02 2.600000e+01 1.181530e-01 8.375840e-04 5.000000e-04 1.115670e+05 4.379030e+01 1.713310e-01 0.000000e+00 2.992690e+02 2.229760e-03 2.618510e-03 1.429170e-03 7.676100e-01 2.261130e-01 6.000000e+00 0.000000e+00 0.000000e+00
2.000000e+00 7.150000e+02 2.600000e+01 1.180380e-01 7.860930e-04 5.000000e-04 1.115670e+05 4.379030e+01 1.713310e-01 0.000000e+00 2.992690e+02 2.229760e-03 2.618510e-03 1.429170e-03 7.676100e-01 2.261130e-01 6.000000e+00 0.000000e+00 0.000000e+00
2.000000e+00 7.140000e+02 2.500000e+01 1.176050e-01 0.000000e+00 5.000000e-04 1.116020e+05 4.388430e+01 2.988790e-01 0.000000e+00 2.992980e+02 1.891260e-03 2.424190e-03 1.323110e-03 7.679200e-01 2.264410e-01 6.000000e+00 0.000000e+00 0.000000e+00
2.000000e+00 4.720000e+02 2.557000e+03 1.019150e-01 4.931340e-02 5.000000e-04 1.121900e+05 1.733770e+01 3.126830e-01 0.000000e+00 3.026520e+02 1.923670e-01 6.998500e-03 3.819750e-03 6.200690e-01 1.767450e-01 7.000000e+00 0.000000e+00 0.000000e+00
2.000000e+00 4.640000e+02 2.457000e+03 1.052820e-01 4.769290e-02 5.000000e-04 1.116380e+05 2.166170e+01 1.792230e+00 0.000000e+00 4.472060e+02 1.870250e-01 4.590010e-02 2.505210e-02 6.141460e-01 1.278770e-01 9.000000e+00 0.000000e+00 0.000000e+00
2.000000e+00 7.610000e+02 1.950000e+02 1.317730e-01 3.771800e-03 5.000000e-04 1.113990e+05 7.081830e+01 -1.151120e+00 0.000000e+00 1.539370e+03 1.468920e-05 1.025540e-01 5.597370e-02 7.436120e-01 9.784550e-02 6.000000e+00 1.000000e+00 7.000000e+00
2.000000e+00 1.540000e+02 2.507000e+03 1.032110e-01 4.832600e-02 5.000000e-04 1.118240e+05 1.923910e+01 3.418830e-01 0.000000e+00 3.338020e+02 1.908100e-01 1.630210e-02 8.897610e-03 6.188670e-01 1.651230e-01 8.000000e+00 0.000000e+00 0.000000e+00
2.000000e+00 6.880000e+02 4.610000e+02 1.376870e-01 8.471090e-03 5.000000e-04 1.112940e+05 8.881410e+01 -3.902750e+00 0.000000e+00 1.713570e+03 1.354560e-01 1.543170e-01 8.422560e-02 6.260020e-01 9.229300e-15 6.000000e+00 1.000000e+00 7.000000e+00
2.000000e+00 7.620000e+02 1.930000e+02 1.290960e-01 3.936810e-03 5.000000e-04 1.114000e+05 6.976940e+01 -9.711750e-01 0.000000e+00 1.505560e+03 1.237030e-05 9.616770e-02 5.248790e-02 7.452560e-01 1.060760e-01 6.000000e+00 1.000000e+00 7.000000e+00
2.000000e+00 7.600000e+02 1.840000e+02 1.205580e-01 3.359090e-03 5.000000e-04 1.115420e+05 6.520800e+01 -1.434120e-02 0.000000e+00 1.337150e+03 7.422420e-06 8.642400e-02 4.716990e-02 7.477650e-01 1.186330e-01 6.000000e+00 1.000000e+00 7.000000e+00
2.000000e+00 1.560000e+02 2.504000e+03 1.009840e-01 4.838110e-02 5.000000e-04 1.120620e+05 2.119020e+01 -5.975730e-01 0.000000e+00 3.345990e+02 1.761260e-01 1.678110e-02 9.159050e-03 6.300460e-01 1.678880e-01 8.000000e+00 0.000000e+00 0.000000e+00
2.000000e+00 1.990000e+02 2.504000e+03 1.002930e-01 4.832090e-02 5.000000e-04 1.120620e+05 2.119020e+01 -5.975730e-01 0.000000e+00 3.345990e+02 1.761260e-01 1.678110e-02 9.159050e-03 6.300460e-01 1.678880e-01 8.000000e+00 0.000000e+00 0.000000e+00
2.000000e+00 7.590000e+02 1.250000e+02 1.137890e-01 2.804650e-03 5.000000e-04 1.116330e+05 5.128270e+01 5.652350e-01 0.000000e+00 6.365870e+02 4.103780e-03 4.199580e-02 2.292110e-02 7.560380e-01 1.749410e-01 6.000000e+00 0.000000e+00 0.000000e+00
2.000000e+00 7.580000e+02 1.230000e+02 1.116690e-01 2.464230e-03 5.000000e-04 1.116330e+05 5.109980e+01 4.939710e-01 0.000000e+00 6.426690e+02 4.269280e-03 4.458730e-02 2.433560e-02 7.552440e-01 1.715640e-01 6.000000e+00 0.000000e+00 0.000000e+00