#           y             T         TMean   TPrime2Mean           U_x           U_y           U_z       UMean_x       UMean_y       UMean_z UPrime2Mea... UPrime2Mea... UPrime2Mea... UPrime2Mea... UPrime2Mea... UPrime2Mea...            O2           H2O          C3H8             p         pMean   pPrime2Mean           CO2
         0.03       288.303       288.528      0.308377       4.68125       5.80988             0         3.793      0.902098             0       18.9182      -1.58978             0       52.6563             0             0      0.183735   2.23085e-15      0.201153        102311        103116        271118   4.08732e-15
    0.0301702       288.322       288.526      0.305508       4.71642       5.61476             0       3.76246      0.937714             0       18.9825      -1.56901             0       52.5644             0             0      0.184195   2.02662e-15      0.199153        102310        103116        270629   3.71315e-15
    0.0303403       288.342       288.524      0.302639       4.75159       5.41965             0       3.73193       0.97333             0       19.0467      -1.54823             0       52.4725             0             0      0.184655    1.8224e-15      0.197153        102309        103116        270139   3.33897e-15
    0.0305105       288.361       288.523       0.29977       4.78675       5.22454             0        3.7014       1.00895             0        19.111      -1.52745             0       52.3805             0             0      0.185115   1.61817e-15      0.195153        102308        103116        269650   2.96479e-15
    0.0306807       288.381       288.521      0.296901       4.82192       5.02942             0       3.67087       1.04456             0       19.1752      -1.50667             0       52.2886             0             0      0.185575   1.41395e-15      0.193153        102307        103117        269160   2.59061e-15
    0.0308509         288.4        288.52      0.294032       4.85709       4.83431             0       3.64033       1.08018             0       19.2395       -1.4859             0       52.1967             0             0      0.186035   1.20972e-15      0.191154        102306        103117        268671   2.21644e-15
     0.031021       288.419       288.518      0.291286       4.89769        4.6377             0       3.61194       1.11625             0       19.3242      -1.46043             0       52.0923             0             0      0.186452   1.02775e-15      0.189338        102306        103117        268174   1.88303e-15
    0.0311912       288.433       288.516      0.289415       4.97683       4.43045             0       3.59874       1.15554             0       19.5542      -1.40164             0       51.8997             0             0      0.186569   1.00367e-15      0.188832        102305        103118        267629   1.83891e-15
    0.0313614       288.448       288.514      0.287544       5.05597        4.2232             0       3.58553       1.19482             0       19.7841      -1.34285             0       51.7071             0             0      0.186685   9.79591e-16      0.188326        102304        103118        267083   1.79479e-15
    0.0315315       288.462       288.512      0.285672       5.13512       4.01595             0       3.57232       1.23411             0       20.0141      -1.28407             0       51.5144             0             0      0.186801   9.55511e-16       0.18782        102303        103119        266537   1.75067e-15
    0.0317017       288.476       288.509      0.283801       5.21426        3.8087             0       3.55912        1.2734             0        20.244      -1.22528             0       51.3218             0             0      0.186918   9.31431e-16      0.187314        102303        103119        265991   1.70655e-15
    0.0318719        288.49       288.507      0.281929        5.2934       3.60145             0       3.54591       1.31269             0        20.474       -1.1665             0       51.1292             0             0      0.187034   9.07351e-16      0.186809        102302        103120        265445   1.66244e-15
     0.032042       288.504       288.505      0.280352       5.38229       3.39375             0       3.53602       1.35224             0       20.7515      -1.09329             0       50.9154             0             0      0.187103   8.93003e-16      0.186509        102301        103120        264895   1.63615e-15
    0.0322122       288.514       288.503      0.279673       5.50089       3.18466             0       3.53621       1.39263             0       21.1739     -0.976123             0       50.6373             0             0      0.187028   9.08316e-16      0.186837        102300        103121        264329    1.6642e-15
    0.0323824       288.525       288.501      0.278994       5.61948       2.97556             0        3.5364       1.43302             0       21.5963     -0.858956             0       50.3591             0             0      0.186952   9.23629e-16      0.187165        102300        103121        263764   1.69226e-15
    0.0325526       288.536       288.498      0.278315       5.73807       2.76647             0       3.53659       1.47341             0       22.0188     -0.741789             0        50.081             0             0      0.186877   9.38942e-16      0.187493        102299        103122        263199   1.72032e-15
    0.0327227       288.547       288.496      0.277636       5.85667       2.55737             0       3.53679        1.5138             0       22.4412     -0.624622             0       49.8028             0             0      0.186801   9.54255e-16      0.187821        102299        103122        262633   1.74837e-15
    0.0328929       288.557       288.494      0.276957       5.97526       2.34828             0       3.53698       1.55418             0       22.8636     -0.507455             0       49.5247             0             0      0.186726   9.69569e-16      0.188149        102298        103123        262068   1.77643e-15
    0.0330631       288.568       288.492      0.276627       6.10446       2.14464             0       3.53979       1.59428             0       23.3871     -0.369453             0       49.2212             0             0      0.186594   9.89015e-16      0.188723        102298        103123        261504   1.81206e-15
    0.0332332       288.579        288.49       0.27689       6.25166       1.95028             0       3.54704       1.63388             0       24.0823     -0.196063             0       48.8745             0             0      0.186366   1.01548e-15      0.189714        102297        103124        260943   1.86055e-15
    0.0334034       288.591       288.487      0.277153       6.39886       1.75592             0       3.55429       1.67349             0       24.7775    -0.0226743             0       48.5278             0             0      0.186138   1.04195e-15      0.190706        102297        103125        260382   1.90904e-15
    0.0335736       288.602       288.485      0.277416       6.54606       1.56156             0       3.56155       1.71309             0       25.4727      0.150715             0       48.1811             0             0      0.185909   1.06842e-15      0.191698        102297        103126        259821   1.95754e-15
    0.0337437       288.613       288.483      0.277679       6.69327        1.3672             0        3.5688        1.7527             0       26.1679      0.324104             0       47.8344             0             0      0.185681   1.09488e-15       0.19269        102296        103126        259260   2.00603e-15
    0.0339139       288.624        288.48      0.277942       6.84047       1.17284             0       3.57605        1.7923             0       26.8631      0.497493             0       47.4877             0             0      0.185453   1.12135e-15      0.193682        102296        103127        258699   2.05452e-15
    0.0340841       288.633       288.478      0.278503       6.99481      0.995101             0       3.58555       1.83046             0       27.6917      0.693831             0       47.1088             0             0       0.18522   1.14721e-15      0.194695        102296        103128        258147   2.10191e-15
    0.0342543       288.639       288.476      0.279367       7.15644      0.834389             0       3.59733       1.86714             0        28.657      0.913665             0       46.6968             0             0      0.184982   1.17246e-15      0.195729        102296        103129        257606   2.14817e-15
    0.0344244       288.645       288.474      0.280232       7.31808      0.673677             0       3.60912       1.90383             0       29.6223        1.1335             0       46.2849             0             0      0.184744   1.19771e-15      0.196764        102296        103129        257064   2.19444e-15
    0.0345946        288.65       288.472      0.281097       7.47972      0.512965             0        3.6209       1.94051             0       30.5876       1.35333             0        45.873             0             0      0.184506   1.22296e-15      0.197798        102296        103130        256523    2.2407e-15
    0.0347648       288.656        288.47      0.281961       7.64136      0.352253             0       3.63269       1.97719             0       31.5529       1.57317             0        45.461             0             0      0.184268   1.24821e-15      0.198833        102295        103131        255981   2.28696e-15
    0.0349349       288.662       288.469      0.282826       7.80299      0.191541             0       3.64447       2.01387             0       32.5182         1.793             0       45.0491             0             0       0.18403   1.27346e-15      0.199868        102295        103132        255440   2.33322e-15
    0.0351051       288.661       288.467      0.283622       7.96199     0.0650864             0       3.65947       2.04777             0         33.57       2.01816             0       44.5985             0             0      0.183884   1.29393e-15      0.200505        102296        103133        254913   2.37073e-15
    0.0352753       288.656       288.466      0.284376       8.11936     -0.040161             0       3.67646       2.07994             0       34.6753       2.24662             0        44.124             0             0      0.183794   1.31145e-15      0.200896        102296        103134        254395   2.40282e-15
    0.0354454       288.651       288.464       0.28513       8.27673     -0.145408             0       3.69345       2.11211             0       35.7806       2.47507             0       43.6495             0             0      0.183704   1.32896e-15      0.201287        102296        103135        253877    2.4349e-15
    0.0356156       288.646       288.463      0.285884        8.4341     -0.250656             0       3.71043       2.14428             0       36.8859       2.70353             0        43.175             0             0      0.183614   1.34647e-15      0.201678        102296        103136        253359   2.46699e-15
    0.0357858       288.641       288.462      0.286638       8.59147     -0.355903             0       3.72742       2.17645             0       37.9912       2.93199             0       42.7005             0             0      0.183524   1.36398e-15      0.202068        102297        103137        252842   2.49907e-15
     0.035956       288.636       288.461      0.287392       8.74883     -0.461151             0       3.74441       2.20862             0       39.0965       3.16044             0        42.226             0             0      0.183434    1.3815e-15      0.202459        102297        103138        252324   2.53116e-15
    0.0361261       288.622        288.46       0.28736       8.88401     -0.508972             0       3.76511       2.23655             0       40.2025       3.35417             0       41.7186             0             0       0.18348   1.39321e-15       0.20226        102297        103139        251847   2.55263e-15
    0.0362963       288.606        288.46      0.287054       9.01143     -0.536741             0       3.78711       2.26299             0       41.3087       3.53577             0       41.1998             0             0      0.183573   1.40291e-15      0.201855        102298        103140        251386   2.57039e-15
    0.0364665       288.589       288.459      0.286748       9.13886     -0.564509             0       3.80911       2.28944             0        42.415       3.71736             0        40.681             0             0      0.183667    1.4126e-15      0.201449        102299        103141        250924   2.58815e-15
    0.0366366       288.572       288.459      0.286442       9.26628     -0.592277             0       3.83111       2.31589             0       43.5213       3.89896             0       40.1622             0             0       0.18376    1.4223e-15      0.201044        102299        103142        250462   2.60592e-15
    0.0368068       288.556       288.458      0.286136       9.39371     -0.620045             0       3.85311       2.34233             0       44.6276       4.08056             0       39.6434             0             0      0.183853   1.43199e-15      0.200639        102300        103143        250000   2.62368e-15
     0.036977       288.539       288.458       0.28583       9.52113     -0.647814             0       3.87511       2.36878             0       45.7339       4.26216             0       39.1245             0             0      0.183946   1.44169e-15      0.200233        102300        103144        249538   2.64144e-15
    0.0371471       288.509       288.458      0.284084        9.5963      -0.59735             0        3.9014       2.38813             0       46.7336       4.40262             0       38.5782             0             0      0.184249   1.44062e-15      0.198918        102301        103145        249135   2.63949e-15
    0.0373173       288.476       288.458      0.282113        9.6633     -0.534647             0       3.92836       2.40637             0       47.7166       4.53665             0       38.0276             0             0      0.184584   1.43787e-15      0.197459        102302        103147        248742   2.63445e-15
    0.0374875       288.443       288.458      0.280143        9.7303     -0.471943             0       3.95532       2.42461             0       48.6996       4.67067             0       37.4769             0             0       0.18492   1.43513e-15      0.196001        102303        103148        248349   2.62942e-15
    0.0376577       288.411       288.459      0.278172        9.7973      -0.40924             0       3.98228       2.44285             0       49.6827        4.8047             0       36.9263             0             0      0.185255   1.43238e-15      0.194543        102304        103149        247956   2.62438e-15
    0.0378278       288.378       288.459      0.276201       9.86429     -0.346536             0       4.00924        2.4611             0       50.6657       4.93872             0       36.3757             0             0      0.185591   1.42963e-15      0.193085        102304        103150        247563   2.61935e-15
     0.037998       288.345       288.459      0.274231       9.93129     -0.283833             0        4.0362       2.47934             0       51.6487       5.07275             0        35.825             0             0      0.185926   1.42688e-15      0.191626        102305        103151        247170   2.61431e-15
    0.0381682       288.298       288.459      0.270576       9.91403     -0.137444             0       4.06892       2.48677             0       52.4044       5.22064             0       35.2415             0             0      0.186476   1.40577e-15      0.189235        102306        103153        246859   2.57564e-15
    0.0383383        288.25        288.46      0.266902       9.89577    0.00994098             0        4.1017       2.49408             0       53.1574       5.36869             0       34.6575             0             0      0.187029   1.38444e-15      0.186832        102307        103154        246550   2.53656e-15
    0.0385085       288.202        288.46      0.263227       9.87751      0.157326             0       4.13448       2.50139             0       53.9104       5.51674             0       34.0736             0             0      0.187581   1.36312e-15      0.184428        102308        103155        246241   2.49749e-15
    0.0386787       288.155        288.46      0.259553       9.85925      0.304711             0       4.16727        2.5087             0       54.6634       5.66479             0       33.4897             0             0      0.188134   1.34179e-15      0.182025        102309        103156        245932   2.45841e-15
    0.0388488       288.107        288.46      0.255878       9.84099      0.452096             0       4.20005       2.51601             0       55.4163       5.81284             0       32.9058             0             0      0.188687   1.32046e-15      0.179622        102310        103158        245623   2.41933e-15
     0.039019       288.059       288.461      0.252095         9.814      0.604542             0       4.23331       2.52202             0       56.1413         5.967             0       32.3174             0             0       0.18924   1.29735e-15      0.177217        102311        103159        245324   2.37699e-15
    0.0391892       288.011        288.46      0.247445       9.71763      0.797214             0       4.27042       2.51768             0       56.6437       6.16977             0        31.694             0             0      0.189799   1.26006e-15      0.174788        102312        103160        245103   2.30866e-15
    0.0393594       287.964        288.46      0.242796       9.62127      0.989886             0       4.30752       2.51334             0       57.1461       6.37254             0       31.0706             0             0      0.190357   1.22277e-15       0.17236        102313        103162        244882   2.24034e-15
    0.0395295       287.916        288.46      0.238146        9.5249       1.18256             0       4.34462         2.509             0       57.6485       6.57532             0       30.4472             0             0      0.190916   1.18547e-15      0.169932        102314        103163        244662   2.17201e-15
    0.0396997       287.869        288.46      0.233497       9.42854       1.37523             0       4.38172       2.50466             0       58.1509       6.77809             0       29.8237             0             0      0.191474   1.14818e-15      0.167504        102315        103164        244441   2.10368e-15
    0.0398699       287.821        288.46      0.228847       9.33218        1.5679             0       4.41882       2.50032             0       58.6533       6.98086             0       29.2003             0             0      0.192033   1.11089e-15      0.165076        102316        103165        244220   2.03536e-15
      0.04004       287.779        288.46      0.224287       9.23089       1.75372             0       4.45635       2.49386             0       59.1075       7.18892             0       28.5699             0             0      0.192527   1.07451e-15      0.162927        102317        103167        244021   1.96869e-15
    0.0402102       287.752        288.46      0.220014       9.11363       1.91724             0       4.49527       2.48048             0        59.405       7.41419             0       27.9169             0             0      0.192811   1.04107e-15      0.161689        102318        103168        243893   1.90744e-15
    0.0403804       287.726       288.459      0.215742       8.99637       2.08077             0       4.53418       2.46711             0       59.7026       7.63946             0       27.2638             0             0      0.193096   1.00764e-15      0.160451        102319        103169        243764   1.84618e-15
    0.0405506         287.7       288.459       0.21147       8.87911        2.2443             0        4.5731       2.45374             0       60.0002       7.86473             0       26.6107             0             0      0.193381   9.74205e-16      0.159213        102320        103171        243636   1.78492e-15
    0.0407207       287.673       288.458      0.207198       8.76185       2.40783             0       4.61202       2.44037             0       60.2978       8.09001             0       25.9576             0             0      0.193666   9.40771e-16      0.157975        102321        103172        243507   1.72367e-15
    0.0408909       287.647       288.458      0.202925       8.64459       2.57135             0       4.65093       2.42699             0       60.5953       8.31528             0       25.3046             0             0       0.19395   9.07337e-16      0.156737        102322        103173        243378   1.66241e-15
    0.0410611       287.629       288.458      0.198992        8.5451       2.70115             0       4.68971       2.41173             0        60.845       8.52076             0       24.6507             0             0      0.194099   8.79703e-16      0.156091        102324        103175        243282   1.61178e-15
    0.0412312       287.628       288.457      0.195664       8.47737       2.77065             0       4.72824       2.39311             0        61.009        8.6909             0       23.9954             0             0      0.194005   8.62433e-16      0.156502        102325        103176        243242   1.58014e-15
    0.0414014       287.627       288.456      0.192336       8.40963       2.84016             0       4.76677       2.37448             0        61.173       8.86104             0       23.3402             0             0       0.19391   8.45163e-16      0.156913        102326        103177        243202    1.5485e-15
    0.0415716       287.626       288.456      0.189008        8.3419       2.90967             0        4.8053       2.35585             0        61.337       9.03118             0       22.6849             0             0      0.193815   8.27893e-16      0.157324        102327        103179        243162   1.51685e-15
    0.0417417       287.625       288.455      0.185681       8.27417       2.97918             0       4.84383       2.33722             0        61.501       9.20132             0       22.0296             0             0      0.193721   8.10623e-16      0.157736        102329        103180        243122   1.48521e-15
    0.0419119       287.623       288.454      0.182353       8.20643       3.04869             0       4.88236       2.31859             0       61.6651       9.37146             0       21.3744             0             0      0.193626   7.93353e-16      0.158147        102330        103181        243082   1.45357e-15
    0.0420821       287.628       288.453      0.179653       8.17886       3.07316             0       4.91822       2.29848             0       61.7988       9.48355             0       20.7306             0             0      0.193411   7.80811e-16      0.159083        102331        103183        243075   1.43059e-15
    0.0422523        287.64       288.452      0.177628       8.19439       3.04932             0        4.9512       2.27678             0          61.9       9.53335             0       20.0991             0             0      0.193066   7.73343e-16      0.160584        102332        103184        243103   1.41691e-15
    0.0424224       287.651        288.45      0.175602       8.20992       3.02547             0       4.98419       2.25508             0       62.0012       9.58314             0       19.4677             0             0      0.192721   7.65875e-16      0.162084        102334        103185        243131   1.40323e-15
    0.0425926       287.663       288.449      0.173577       8.22544       3.00162             0       5.01717       2.23338             0       62.1024       9.63294             0       18.8362             0             0      0.192376   7.58407e-16      0.163585        102335        103186        243158   1.38954e-15
    0.0427628       287.675       288.448      0.171551       8.24097       2.97777             0       5.05016       2.21168             0       62.2036       9.68274             0       18.2048             0             0       0.19203   7.50939e-16      0.165085        102336        103188        243186   1.37586e-15
    0.0429329       287.686       288.446      0.169526        8.2565       2.95393             0       5.08314       2.18998             0       62.3047       9.73254             0       17.5734             0             0      0.191685    7.4347e-16      0.166585        102338        103189        243214   1.36218e-15
    0.0431031       287.699       288.444      0.168461       8.30495       2.90448             0       5.10902       2.16621             0       62.3343       9.70391             0       16.9552             0             0      0.191299   7.40248e-16      0.168266        102339        103190        243280   1.35627e-15
    0.0432733       287.713       288.442      0.168022       8.37482       2.83838             0       5.13028       2.14109             0       62.3173       9.62427             0       16.3457             0             0      0.190886   7.39787e-16      0.170063        102340        103192        243373   1.35543e-15
    0.0434434       287.727       288.439      0.167583        8.4447       2.77229             0       5.15154       2.11598             0       62.3002       9.54463             0       15.7362             0             0      0.190472   7.39327e-16       0.17186        102342        103193        243465   1.35458e-15
    0.0436136       287.741       288.437      0.167143       8.51457       2.70619             0       5.17279       2.09086             0       62.2832       9.46499             0       15.1267             0             0      0.190059   7.38866e-16      0.173658        102343        103194        243557   1.35374e-15
    0.0437838       287.755       288.434      0.166704       8.58444       2.64009             0       5.19405       2.06575             0       62.2661       9.38535             0       14.5172             0             0      0.189645   7.38406e-16      0.175455        102344        103195        243650    1.3529e-15
     0.043954       287.769       288.432      0.166264       8.65431         2.574             0       5.21531       2.04063             0       62.2491       9.30571             0       13.9077             0             0      0.189232   7.37945e-16      0.177252        102346        103197        243742   1.35205e-15
    0.0441241       287.781       288.429      0.166685       8.72631       2.50992             0       5.22755       2.00987             0       62.0332       9.15391             0       13.3144             0             0      0.188849   7.42735e-16      0.178915        102347        103198        243884   1.36083e-15
    0.0442943       287.792       288.425      0.167424       8.79911       2.44658             0       5.23644       1.97701             0       61.7435       8.97533             0        12.727             0             0      0.188478   7.49474e-16      0.180529        102348        103199        244045   1.37318e-15
    0.0444645       287.804       288.421      0.168163        8.8719       2.38325             0       5.24534       1.94415             0       61.4539       8.79676             0       12.1397             0             0      0.188107   7.56213e-16      0.182142        102349        103200        244206   1.38552e-15
    0.0446346       287.815       288.417      0.168903       8.94469       2.31992             0       5.25424        1.9113             0       61.1642       8.61818             0       11.5523             0             0      0.187736   7.62951e-16      0.183755        102351        103201        244367   1.39787e-15
    0.0448048       287.827       288.414      0.169642       9.01749       2.25659             0       5.26314       1.87844             0       60.8746       8.43961             0        10.965             0             0      0.187365    7.6969e-16      0.185368        102352        103203        244528   1.41022e-15
     0.044975       287.838        288.41      0.170382       9.09028       2.19325             0       5.27203       1.84558             0       60.5849       8.26103             0       10.3776             0             0      0.186994   7.76428e-16      0.186981        102353        103204        244689   1.42256e-15
    0.0451451        287.84       288.405      0.171644       9.15797       2.13886             0       5.27151       1.80205             0       60.0164       8.01407             0       9.82749             0             0      0.186798   7.83194e-16      0.187836        102355        103205        244887   1.43496e-15
    0.0453153       287.841         288.4      0.172997       9.22478       2.08601             0       5.26937       1.75667             0       59.3998       7.75532             0        9.2838             0             0      0.186631   7.89963e-16      0.188559        102356        103206        245091   1.44736e-15
    0.0454855       287.842       288.395       0.17435        9.2916       2.03315             0       5.26722        1.7113             0       58.7831       7.49657             0        8.7401             0             0      0.186465   7.96733e-16      0.189282        102357        103207        245295   1.45976e-15