#           y             T         TMean   TPrime2Mean           U_x           U_y           U_z       UMean_x       UMean_y       UMean_z UPrime2Mea... UPrime2Mea... UPrime2Mea... UPrime2Mea... UPrime2Mea... UPrime2Mea...            O2           H2O          C3H8             p         pMean   pPrime2Mean           CO2
         0.04       287.744       288.371      0.109753      -4.71163      -4.57149             0      -5.00612      -7.49187             0       20.6963       6.41213             0       35.7831             0             0      0.191623   8.70099e-16      0.166855        102068        103066        236026   1.59418e-15
     0.039975       287.743       288.371      0.109885      -4.74049      -4.59223             0      -4.99996      -7.49965             0       20.7289       6.31634             0       35.9401             0             0      0.191604   8.69124e-16      0.166938        102068        103066        236004    1.5924e-15
    0.0399499       287.742       288.371      0.110018      -4.76935      -4.61297             0       -4.9938      -7.50743             0       20.7615       6.22055             0       36.0971             0             0      0.191585   8.68149e-16       0.16702        102068        103066        235982   1.59061e-15
    0.0399249       287.741        288.37      0.110151      -4.79821      -4.63371             0      -4.98764      -7.51521             0       20.7941       6.12475             0       36.2541             0             0      0.191566   8.67174e-16      0.167103        102068        103066        235960   1.58882e-15
    0.0398999        287.74        288.37      0.110284      -4.82706      -4.65446             0      -4.98148        -7.523             0       20.8267       6.02896             0       36.4111             0             0      0.191547   8.66199e-16      0.167185        102069        103066        235937   1.58704e-15
    0.0398749       287.739        288.37      0.110417      -4.85592       -4.6752             0      -4.97533      -7.53078             0       20.8593       5.93317             0       36.5681             0             0      0.191528   8.65224e-16      0.167268        102069        103065        235915   1.58525e-15
    0.0398498       287.738       288.369       0.11055      -4.88478      -4.69594             0      -4.96917      -7.53856             0       20.8918       5.83737             0       36.7251             0             0      0.191509   8.64249e-16       0.16735        102069        103065        235893   1.58346e-15
    0.0398248       287.737       288.369      0.110682      -4.91363      -4.71668             0      -4.96301      -7.54634             0       20.9244       5.74158             0       36.8821             0             0       0.19149   8.63274e-16      0.167433        102069        103065        235871   1.58168e-15
    0.0397998       287.736       288.369      0.110815      -4.94249      -4.73743             0      -4.95685      -7.55412             0        20.957       5.64579             0       37.0391             0             0      0.191471   8.62299e-16      0.167515        102069        103065        235849   1.57989e-15
    0.0397748       287.735       288.368      0.110948      -4.97135      -4.75817             0      -4.95069      -7.56191             0       20.9896          5.55             0       37.1961             0             0      0.191453   8.61324e-16      0.167598        102069        103065        235826   1.57811e-15
    0.0397497       287.734       288.368      0.111081       -5.0002      -4.77891             0      -4.94453      -7.56969             0       21.0222        5.4542             0       37.3532             0             0      0.191434   8.60349e-16       0.16768        102069        103064        235804   1.57632e-15
    0.0397247       287.733       288.368      0.111214      -5.02906      -4.79965             0      -4.93838      -7.57747             0       21.0548       5.35841             0       37.5102             0             0      0.191415   8.59374e-16      0.167763        102069        103064        235782   1.57453e-15
    0.0396997       287.732       288.367      0.111347      -5.05792       -4.8204             0      -4.93222      -7.58525             0       21.0874       5.26262             0       37.6672             0             0      0.191396   8.58399e-16      0.167845        102069        103064        235760   1.57275e-15
    0.0396747       287.731       288.367      0.111479      -5.08678      -4.84114             0      -4.92606      -7.59303             0         21.12       5.16682             0       37.8242             0             0      0.191377   8.57424e-16      0.167928        102069        103064        235738   1.57096e-15
    0.0396496        287.73       288.367      0.111612      -5.11563      -4.86188             0       -4.9199      -7.60082             0       21.1526       5.07103             0       37.9812             0             0      0.191358   8.56449e-16       0.16801        102069        103063        235715   1.56917e-15
    0.0396246       287.729       288.366      0.111745      -5.14449      -4.88263             0      -4.91374       -7.6086             0       21.1852       4.97524             0       38.1382             0             0      0.191339   8.55474e-16      0.168093        102069        103063        235693   1.56739e-15
    0.0395996       287.728       288.366      0.111878      -5.17335      -4.90337             0      -4.90758      -7.61638             0       21.2178       4.87944             0       38.2952             0             0       0.19132   8.54499e-16      0.168175        102069        103063        235671    1.5656e-15
    0.0395746       287.727       288.366      0.112011       -5.2022      -4.92411             0      -4.90142      -7.62416             0       21.2504       4.78365             0       38.4522             0             0      0.191301   8.53524e-16      0.168258        102069        103063        235649   1.56381e-15
    0.0395495       287.726       288.365      0.112144      -5.23106      -4.94485             0      -4.89527      -7.63194             0        21.283       4.68786             0       38.6092             0             0      0.191282   8.52549e-16       0.16834        102070        103063        235627   1.56203e-15
    0.0395245       287.725       288.365      0.112276      -5.25992       -4.9656             0      -4.88911      -7.63972             0       21.3156       4.59206             0       38.7662             0             0      0.191263   8.51574e-16      0.168423        102070        103062        235604   1.56024e-15
    0.0394995       287.724       288.365      0.112409      -5.28877      -4.98634             0      -4.88295      -7.64751             0       21.3482       4.49627             0       38.9232             0             0      0.191244   8.50599e-16      0.168505        102070        103062        235582   1.55846e-15
    0.0394745       287.722       288.364      0.112542      -5.31763      -5.00708             0      -4.87679      -7.65529             0       21.3808       4.40048             0       39.0802             0             0      0.191225   8.49624e-16      0.168588        102070        103062        235560   1.55667e-15
    0.0394494       287.721       288.364      0.112675      -5.34649      -5.02782             0      -4.87063      -7.66307             0       21.4134       4.30468             0       39.2372             0             0      0.191206   8.48649e-16       0.16867        102070        103062        235538   1.55488e-15
    0.0394244        287.72       288.364      0.112808      -5.37535      -5.04857             0      -4.86447      -7.67085             0       21.4459       4.20889             0       39.3942             0             0      0.191187   8.47674e-16      0.168753        102070        103062        235516    1.5531e-15
    0.0393994       287.719       288.363      0.112941       -5.4042      -5.06931             0      -4.85832      -7.67863             0       21.4785        4.1131             0       39.5512             0             0      0.191168   8.46699e-16      0.168835        102070        103061        235493   1.55131e-15
    0.0393744       287.718       288.363      0.113073      -5.43306      -5.09005             0      -4.85216      -7.68642             0       21.5111        4.0173             0       39.7082             0             0      0.191149   8.45724e-16      0.168918        102070        103061        235471   1.54952e-15
    0.0393493       287.717       288.363      0.113206      -5.46192      -5.11079             0        -4.846       -7.6942             0       21.5437       3.92151             0       39.8652             0             0       0.19113   8.44749e-16         0.169        102070        103061        235449   1.54774e-15
    0.0393243       287.716       288.362      0.113339      -5.49077      -5.13154             0      -4.83984      -7.70198             0       21.5763       3.82572             0       40.0222             0             0      0.191111   8.43774e-16      0.169083        102070        103061        235427   1.54595e-15
    0.0392993       287.715       288.362      0.113472      -5.51963      -5.15228             0      -4.83368      -7.70976             0       21.6089       3.72993             0       40.1792             0             0      0.191092   8.42799e-16      0.169165        102070        103061        235405   1.54416e-15
    0.0392743       287.714       288.362      0.113605      -5.54849      -5.17302             0      -4.82752      -7.71754             0       21.6415       3.63413             0       40.3362             0             0      0.191073   8.41824e-16      0.169248        102070        103060        235382   1.54238e-15
    0.0392492       287.713       288.361      0.113738      -5.57734      -5.19376             0      -4.82136      -7.72533             0       21.6741       3.53834             0       40.4932             0             0      0.191054   8.40849e-16       0.16933        102070        103060        235360   1.54059e-15
    0.0392242       287.712       288.361       0.11387       -5.6062      -5.21451             0      -4.81521      -7.73311             0       21.7067       3.44255             0       40.6502             0             0      0.191035   8.39874e-16      0.169413        102070        103060        235338   1.53881e-15
    0.0391992       287.711       288.361      0.114003      -5.63506      -5.23525             0      -4.80905      -7.74089             0       21.7393       3.34675             0       40.8072             0             0      0.191016   8.38899e-16      0.169495        102071        103060        235316   1.53702e-15
    0.0391742        287.71        288.36      0.114136      -5.66392      -5.25599             0      -4.80289      -7.74867             0       21.7719       3.25096             0       40.9642             0             0      0.190997   8.37924e-16      0.169578        102071        103060        235294   1.53523e-15
    0.0391491       287.709        288.36      0.114269      -5.69277      -5.27673             0      -4.79673      -7.75645             0       21.8045       3.15517             0       41.1213             0             0      0.190978   8.36949e-16       0.16966        102071        103059        235271   1.53345e-15
    0.0391241       287.708        288.36      0.114402      -5.72163      -5.29748             0      -4.79057      -7.76423             0       21.8371       3.05937             0       41.2783             0             0      0.190959   8.35974e-16      0.169743        102071        103059        235249   1.53166e-15
    0.0390991       287.707       288.359      0.114535      -5.75049      -5.31822             0      -4.78441      -7.77202             0       21.8697       2.96358             0       41.4353             0             0       0.19094   8.34999e-16      0.169825        102071        103059        235227   1.52987e-15
    0.0390741       287.706       288.359      0.114667      -5.77934      -5.33896             0      -4.77825       -7.7798             0       21.9023       2.86779             0       41.5923             0             0      0.190921   8.34024e-16      0.169908        102071        103059        235205   1.52809e-15
     0.039049       287.705       288.359        0.1148       -5.8082       -5.3597             0       -4.7721      -7.78758             0       21.9349       2.77199             0       41.7493             0             0      0.190902   8.33049e-16       0.16999        102071        103059        235183    1.5263e-15
     0.039024       287.704       288.358      0.114933      -5.83706      -5.38045             0      -4.76594      -7.79536             0       21.9675        2.6762             0       41.9063             0             0      0.190883   8.32074e-16      0.170073        102071        103058        235160   1.52451e-15
     0.038999       287.703       288.358      0.115064      -5.86563      -5.40094             0      -4.75955        -7.803             0       21.9996       2.58101             0       42.0638             0             0      0.190865   8.31118e-16      0.170152        102071        103058        235139   1.52276e-15
     0.038974       287.702       288.358      0.115153      -5.88732      -5.41549             0       -4.7477      -7.80721             0       22.0206        2.5004             0       42.2327             0             0      0.190866   8.30614e-16      0.170149        102071        103058        235126   1.52184e-15
    0.0389489       287.702       288.357      0.115242      -5.90902      -5.43004             0      -4.73585      -7.81142             0       22.0416       2.41978             0       42.4017             0             0      0.190866    8.3011e-16      0.170146        102071        103058        235113   1.52092e-15
    0.0389239       287.702       288.357       0.11533      -5.93072       -5.4446             0        -4.724      -7.81563             0       22.0627       2.33916             0       42.5706             0             0      0.190867   8.29607e-16      0.170143        102071        103058        235101   1.51999e-15
    0.0388989       287.701       288.357      0.115419      -5.95241      -5.45915             0      -4.71214      -7.81984             0       22.0837       2.25855             0       42.7396             0             0      0.190868   8.29103e-16       0.17014        102072        103057        235088   1.51907e-15
    0.0388739       287.701       288.356      0.115508      -5.97411       -5.4737             0      -4.70029      -7.82404             0       22.1047       2.17793             0       42.9086             0             0      0.190869   8.28599e-16      0.170137        102072        103057        235076   1.51815e-15
    0.0388488         287.7       288.356      0.115597      -5.99581      -5.48825             0      -4.68844      -7.82825             0       22.1258       2.09731             0       43.0775             0             0      0.190869   8.28095e-16      0.170134        102072        103057        235063   1.51722e-15
    0.0388238         287.7       288.356      0.115686       -6.0175       -5.5028             0      -4.67659      -7.83246             0       22.1468       2.01669             0       43.2465             0             0       0.19087   8.27591e-16      0.170131        102072        103057        235051    1.5163e-15
    0.0387988       287.699       288.355      0.115774       -6.0392      -5.51735             0      -4.66474      -7.83667             0       22.1678       1.93608             0       43.4155             0             0      0.190871   8.27088e-16      0.170128        102072        103057        235038   1.51538e-15
    0.0387738       287.699       288.355      0.115863       -6.0609      -5.53191             0      -4.65288      -7.84088             0       22.1888       1.85546             0       43.5844             0             0      0.190871   8.26584e-16      0.170125        102072        103056        235026   1.51446e-15
    0.0387487       287.698       288.354      0.115952      -6.08259      -5.54646             0      -4.64103      -7.84509             0       22.2099       1.77484             0       43.7534             0             0      0.190872    8.2608e-16      0.170122        102072        103056        235013   1.51353e-15
    0.0387237       287.698       288.354      0.116041      -6.10429      -5.56101             0      -4.62918       -7.8493             0       22.2309       1.69423             0       43.9224             0             0      0.190873   8.25576e-16      0.170119        102072        103056        235000   1.51261e-15
    0.0386987       287.698       288.354      0.116129      -6.12599      -5.57556             0      -4.61733      -7.85351             0       22.2519       1.61361             0       44.0913             0             0      0.190873   8.25072e-16      0.170116        102072        103056        234988   1.51169e-15
    0.0386737       287.697       288.353      0.116218      -6.14768      -5.59011             0      -4.60548      -7.85771             0       22.2729       1.53299             0       44.2603             0             0      0.190874   8.24569e-16      0.170113        102072        103056        234975   1.51076e-15
    0.0386486       287.697       288.353      0.116307      -6.16938      -5.60466             0      -4.59363      -7.86192             0        22.294       1.45238             0       44.4293             0             0      0.190875   8.24065e-16       0.17011        102073        103055        234963   1.50984e-15
    0.0386236       287.696       288.353      0.116396      -6.19107      -5.61921             0      -4.58177      -7.86613             0        22.315       1.37176             0       44.5982             0             0      0.190875   8.23561e-16      0.170107        102073        103055        234950   1.50892e-15
    0.0385986       287.696       288.352      0.116485      -6.21277      -5.63377             0      -4.56992      -7.87034             0        22.336       1.29114             0       44.7672             0             0      0.190876   8.23057e-16      0.170104        102073        103055        234938   1.50799e-15
    0.0385736       287.695       288.352      0.116573      -6.23447      -5.64832             0      -4.55807      -7.87455             0       22.3571       1.21052             0       44.9362             0             0      0.190877   8.22553e-16      0.170101        102073        103055        234925   1.50707e-15
    0.0385485       287.695       288.352      0.116662      -6.25616      -5.66287             0      -4.54622      -7.87876             0       22.3781       1.12991             0       45.1051             0             0      0.190878    8.2205e-16      0.170098        102073        103055        234912   1.50615e-15
    0.0385235       287.694       288.351      0.116751      -6.27786      -5.67742             0      -4.53437      -7.88297             0       22.3991       1.04929             0       45.2741             0             0      0.190878   8.21546e-16      0.170095        102073        103054        234900   1.50522e-15
    0.0384985       287.694       288.351       0.11684      -6.29956      -5.69197             0      -4.52251      -7.88718             0       22.4201      0.968673             0        45.443             0             0      0.190879   8.21042e-16      0.170092        102073        103054        234887    1.5043e-15
    0.0384735       287.694       288.351      0.116928      -6.32125      -5.70652             0      -4.51066      -7.89138             0       22.4412      0.888056             0        45.612             0             0       0.19088   8.20538e-16      0.170088        102073        103054        234875   1.50338e-15
    0.0384484       287.693        288.35      0.117017      -6.34295      -5.72108             0      -4.49881      -7.89559             0       22.4622      0.807439             0        45.781             0             0       0.19088   8.20034e-16      0.170085        102073        103054        234862   1.50246e-15
    0.0384234       287.693        288.35      0.117106      -6.36465      -5.73563             0      -4.48696       -7.8998             0       22.4832      0.726822             0       45.9499             0             0      0.190881   8.19531e-16      0.170082        102074        103054        234850   1.50153e-15
    0.0383984       287.692        288.35      0.117195      -6.38634      -5.75018             0      -4.47511      -7.90401             0       22.5043      0.646205             0       46.1189             0             0      0.190882   8.19027e-16      0.170079        102074        103053        234837   1.50061e-15
    0.0383734       287.692       288.349      0.117284      -6.40804      -5.76473             0      -4.46325      -7.90822             0       22.5253      0.565588             0       46.2879             0             0      0.190882   8.18523e-16      0.170076        102074        103053        234824   1.49969e-15
    0.0383483       287.691       288.349      0.117372      -6.42973      -5.77928             0       -4.4514      -7.91243             0       22.5463      0.484971             0       46.4568             0             0      0.190883   8.18019e-16      0.170073        102074        103053        234812   1.49876e-15
    0.0383233       287.691       288.349      0.117461      -6.45143      -5.79383             0      -4.43955      -7.91664             0       22.5673      0.404354             0       46.6258             0             0      0.190884   8.17515e-16       0.17007        102074        103053        234799   1.49784e-15
    0.0382983        287.69       288.348       0.11755      -6.47313      -5.80838             0       -4.4277      -7.92085             0       22.5884      0.323737             0       46.7948             0             0      0.190884   8.17011e-16      0.170067        102074        103053        234787   1.49692e-15
    0.0382733        287.69       288.348      0.117639      -6.49482      -5.82294             0      -4.41585      -7.92505             0       22.6094       0.24312             0       46.9637             0             0      0.190885   8.16508e-16      0.170064        102074        103053        234774   1.49599e-15
    0.0382482        287.69       288.347      0.117727      -6.51652      -5.83749             0        -4.404      -7.92926             0       22.6304      0.162503             0       47.1327             0             0      0.190886   8.16004e-16      0.170061        102074        103052        234762   1.49507e-15
    0.0382232       287.689       288.347      0.117816      -6.53822      -5.85204             0      -4.39214      -7.93347             0       22.6514      0.081886             0       47.3017             0             0      0.190887     8.155e-16      0.170058        102074        103052        234749   1.49415e-15
    0.0381982       287.689       288.347      0.117905      -6.55991      -5.86659             0      -4.38029      -7.93768             0       22.6725    0.00126896             0       47.4706             0             0      0.190887   8.14996e-16      0.170055        102074        103052        234736   1.49322e-15
    0.0381732       287.688       288.346      0.117994      -6.58161      -5.88114             0      -4.36844      -7.94189             0       22.6935    -0.0793481             0       47.6396             0             0      0.190888   8.14492e-16      0.170052        102075        103052        234724    1.4923e-15
    0.0381481       287.688       288.346      0.118083      -6.60331      -5.89569             0      -4.35659       -7.9461             0       22.7145     -0.159965             0       47.8086             0             0      0.190889   8.13989e-16      0.170049        102075        103052        234711   1.49138e-15
    0.0381231       287.687       288.346      0.118171        -6.625      -5.91025             0      -4.34474      -7.95031             0       22.7356     -0.240582             0       47.9775             0             0      0.190889   8.13485e-16      0.170046        102075        103051        234699   1.49046e-15
    0.0380981       287.687       288.345       0.11826       -6.6467       -5.9248             0      -4.33288      -7.95451             0       22.7566     -0.321199             0       48.1465             0             0       0.19089   8.12981e-16      0.170043        102075        103051        234686   1.48953e-15
    0.0380731       287.686       288.345      0.118349       -6.6684      -5.93935             0      -4.32103      -7.95872             0       22.7776     -0.401816             0       48.3155             0             0      0.190891   8.12477e-16       0.17004        102075        103051        234674   1.48861e-15
     0.038048       287.686       288.345      0.118438      -6.69009       -5.9539             0      -4.30918      -7.96293             0       22.7986     -0.482433             0       48.4844             0             0      0.190891   8.11973e-16      0.170037        102075        103051        234661   1.48769e-15
     0.038023       287.686       288.344      0.118526      -6.71179      -5.96845             0      -4.29733      -7.96714             0       22.8197      -0.56305             0       48.6534             0             0      0.190892    8.1147e-16      0.170034        102075        103051        234649   1.48676e-15
     0.037998       287.685       288.344      0.118611       -6.7329      -5.98247             0      -4.28501      -7.97101             0       22.8388     -0.642027             0       48.8227             0             0      0.190894   8.10988e-16      0.170025        102075        103050        234637   1.48588e-15
     0.037973       287.685       288.344      0.118647      -6.74731       -5.9904             0      -4.26726      -7.97094             0       22.8355     -0.702143             0       48.9961             0             0      0.190912   8.10761e-16      0.169947        102075        103050        234634   1.48547e-15
    0.0379479       287.685       288.343      0.118684      -6.76173      -5.99832             0      -4.24952      -7.97088             0       22.8323     -0.762259             0       49.1694             0             0       0.19093   8.10534e-16       0.16987        102076        103050        234631   1.48505e-15
    0.0379229       287.686       288.343       0.11872      -6.77614      -6.00624             0      -4.23178      -7.97082             0        22.829     -0.822375             0       49.3428             0             0      0.190948   8.10307e-16      0.169792        102076        103050        234628   1.48463e-15
    0.0378979       287.686       288.343      0.118757      -6.79055      -6.01417             0      -4.21403      -7.97075             0       22.8258     -0.882491             0       49.5161             0             0      0.190966    8.1008e-16      0.169714        102076        103050        234625   1.48422e-15
    0.0378729       287.686       288.343      0.118793      -6.80496      -6.02209             0      -4.19629      -7.97069             0       22.8226     -0.942607             0       49.6895             0             0      0.190984   8.09853e-16      0.169636        102076        103050        234623    1.4838e-15
    0.0378478       287.686       288.342      0.118829      -6.81937      -6.03002             0      -4.17855      -7.97062             0       22.8193      -1.00272             0       49.8628             0             0      0.191002   8.09626e-16      0.169558        102076        103050        234620   1.48339e-15
    0.0378228       287.686       288.342      0.118866      -6.83379      -6.03794             0      -4.16081      -7.97056             0       22.8161      -1.06284             0       50.0362             0             0       0.19102   8.09399e-16       0.16948        102076        103049        234617   1.48297e-15
    0.0377978       287.686       288.342      0.118902       -6.8482      -6.04586             0      -4.14306      -7.97049             0       22.8129      -1.12295             0       50.2096             0             0      0.191037   8.09173e-16      0.169402        102076        103049        234614   1.48255e-15
    0.0377728       287.686       288.342      0.118938      -6.86261      -6.05379             0      -4.12532      -7.97043             0       22.8096      -1.18307             0       50.3829             0             0      0.191055   8.08946e-16      0.169324        102077        103049        234611   1.48214e-15
    0.0377477       287.686       288.341      0.118975      -6.87702      -6.06171             0      -4.10758      -7.97037             0       22.8064      -1.24319             0       50.5563             0             0      0.191073   8.08719e-16      0.169247        102077        103049        234608   1.48172e-15
    0.0377227       287.687       288.341      0.119011      -6.89143      -6.06963             0      -4.08984       -7.9703             0       22.8031       -1.3033             0       50.7296             0             0      0.191091   8.08492e-16      0.169169        102077        103049        234606   1.48131e-15