#           y             T         TMean   TPrime2Mean           U_x           U_y           U_z       UMean_x       UMean_y       UMean_z UPrime2Mea... UPrime2Mea... UPrime2Mea... UPrime2Mea... UPrime2Mea... UPrime2Mea...            O2           H2O          C3H8             p         pMean   pPrime2Mean           CO2
         0.02       315.892        290.51        181.01       25.7447       1.12585             0       21.6057     -0.825264             0       40.4844      -2.79285             0        19.952             0             0      0.198797   5.05329e-09      0.135666        102167        103103        189255   9.25858e-09
    0.0201677       313.611       290.323       161.476        25.928       1.43848             0       21.6316     -0.803446             0       40.2279      -1.97963             0       20.3206             0             0      0.201508   4.35095e-09      0.123879        102165        103103        189758   7.97175e-09
    0.0203353       311.331       290.137       141.941       26.1112        1.7511             0       21.6575     -0.781628             0       39.9715      -1.16642             0       20.6893             0             0      0.204219   3.64861e-09      0.112092        102163        103102        190262   6.68493e-09
     0.020503        309.05        289.95       122.407       26.2944       2.06373             0       21.6834      -0.75981             0        39.715     -0.353207             0       21.0579             0             0       0.20693   2.94627e-09      0.100306        102161        103102        190766   5.39811e-09
    0.0206707        306.77       289.763       102.873       26.4776       2.37635             0       21.7093     -0.737992             0       39.4586      0.460007             0       21.4265             0             0      0.209641   2.24392e-09     0.0885188        102159        103101        191270   4.11129e-09
    0.0208383        304.49       289.576       83.3393       26.6608       2.68898             0       21.7352     -0.716173             0       39.2021       1.27322             0       21.7952             0             0      0.212352   1.54158e-09      0.076732        102157        103101        191774   2.82446e-09
     0.021006       302.244       289.392       64.2379       26.8433       3.00053             0       21.7554     -0.693951             0       38.9541       2.09141             0       22.1653             0             0      0.215017   8.60382e-10     0.0651416        102155        103100        192277   1.57638e-09
    0.0211737       300.937       289.285       56.7827       27.0065       3.28312             0       21.6248     -0.660844             0       38.9339       3.04362             0       22.5756             0             0      0.216468   7.48296e-10     0.0588357        102152        103100        192768   1.37102e-09
    0.0213413       299.631       289.179       49.3275       27.1696       3.56572             0       21.4941     -0.627737             0       38.9137       3.99582             0       22.9859             0             0      0.217918    6.3621e-10     0.0525299        102149        103099        193259   1.16566e-09
     0.021509       298.324       289.073       41.8723       27.3328       3.84832             0       21.3634     -0.594631             0       38.8934       4.94803             0       23.3963             0             0      0.219368   5.24124e-10      0.046224        102146        103099        193750   9.60292e-10
    0.0216767       297.017       288.966       34.4172        27.496       4.13092             0       21.2327     -0.561524             0       38.8732       5.90023             0       23.8066             0             0      0.220819   4.12037e-10     0.0399181        102143        103098        194240   7.54929e-10
    0.0218443       295.711        288.86        26.962       27.6591       4.41351             0        21.102     -0.528417             0        38.853       6.85243             0       24.2169             0             0      0.222269   2.99951e-10     0.0336122        102140        103097        194731   5.49566e-10
     0.022012       294.449       288.757       19.8595       27.8176        4.6941             0       20.9604     -0.496543             0        38.834        7.7985             0        24.632             0             0      0.223653   1.94124e-10     0.0275958        102136        103097        195225   3.55671e-10
    0.0221797       293.766       288.702       17.3278       27.9146       4.94862             0       20.6774     -0.480636             0       38.8312       8.66502             0        25.109             0             0      0.224174   1.69404e-10       0.02533        102133        103096        195755    3.1038e-10
    0.0223473       293.083       288.646       14.7961       28.0117       5.20313             0       20.3943      -0.46473             0       38.8285       9.53153             0        25.586             0             0      0.224695   1.44684e-10     0.0230642        102129        103096        196285   2.65088e-10
     0.022515         292.4       288.591       12.2644       28.1088       5.45765             0       20.1112     -0.448824             0       38.8257       10.3981             0        26.063             0             0      0.225216   1.19964e-10     0.0207984        102125        103095        196815   2.19797e-10
    0.0226827       291.718       288.536       9.73267       28.2058       5.71217             0       19.8282     -0.432918             0        38.823       11.2646             0         26.54             0             0      0.225738   9.52442e-11     0.0185325        102121        103095        197345   1.74505e-10
    0.0228504       291.035        288.48       7.20096       28.3029       5.96669             0       19.5451     -0.417011             0       38.8202       12.1311             0       27.0169             0             0      0.226259   7.05243e-11     0.0162667        102117        103094        197875   1.29214e-10
     0.023018       290.396       288.428        4.8703       28.3734       6.21085             0       19.2505     -0.404621             0       38.7963       12.9691             0       27.5185             0             0      0.226725   4.78936e-11      0.014237        102113        103094        198414   8.77501e-11
    0.0231857        290.12       288.407       4.20957       28.2235       6.36901             0       18.8596     -0.421436             0       38.5965       13.5703             0       28.2246             0             0      0.226741    4.2616e-11     0.0141683        102109        103094        199027   7.80804e-11
    0.0233534       289.845       288.385       3.54883       28.0736       6.52718             0       18.4688      -0.43825             0       38.3968       14.1716             0       28.9307             0             0      0.226757   3.73383e-11     0.0140997        102105        103093        199641   6.84107e-11
     0.023521       289.569       288.363        2.8881       27.9237       6.68534             0       18.0779     -0.455065             0        38.197       14.7728             0       29.6368             0             0      0.226773   3.20606e-11      0.014031        102101        103093        200254    5.8741e-11
    0.0236887       289.294       288.341       2.22736       27.7738        6.8435             0       17.6871     -0.471879             0       37.9973        15.374             0       30.3429             0             0      0.226789    2.6783e-11     0.0139623        102097        103092        200868   4.90714e-11
    0.0238564       289.018        288.32       1.56663       27.6239       7.00167             0       17.2963     -0.488693             0       37.7976       15.9753             0        31.049             0             0      0.226804   2.15053e-11     0.0138937        102093        103092        201481   3.94017e-11
     0.024024        288.77         288.3      0.982007        27.417        7.1317             0       16.9057     -0.511463             0       37.6297       16.5245             0       31.7894             0             0      0.226789   1.68347e-11     0.0139624        102089        103091        202111   3.08443e-11
    0.0241917       288.688       288.297      0.852473       26.8693       7.09352             0       16.5171     -0.569841             0       37.6525       16.7629             0       32.7354             0             0      0.226584   1.57941e-11     0.0148527        102086        103091        202836   2.89377e-11
    0.0243594       288.606       288.293       0.72294       26.3216       7.05534             0       16.1285     -0.628219             0       37.6752       17.0014             0       33.6813             0             0      0.226379   1.47534e-11      0.015743        102083        103090        203562    2.7031e-11
     0.024527       288.525        288.29      0.593407       25.7739       7.01716             0       15.7398     -0.686597             0        37.698       17.2398             0       34.6273             0             0      0.226174   1.37128e-11     0.0166333        102080        103090        204288   2.51244e-11
    0.0246947       288.443       288.287      0.463873       25.2262       6.97898             0       15.3512     -0.744975             0       37.7208       17.4783             0       35.5732             0             0       0.22597   1.26722e-11     0.0175235        102077        103089        205013   2.32177e-11
    0.0248624       288.361       288.283       0.33434       24.6785        6.9408             0       14.9626     -0.803353             0       37.7435       17.7167             0       36.5192             0             0      0.225765   1.16315e-11     0.0184138        102074        103089        205739   2.13111e-11
      0.02503       288.287       288.281      0.224837       24.0886       6.88045             0       14.5904     -0.867943             0       37.7396       17.9176             0       37.5027             0             0      0.225561   1.06191e-11     0.0193021        102071        103088        206490   1.94562e-11
    0.0251977        288.25       288.284      0.207142        23.305       6.71848             0        14.294     -0.961001             0       37.6133       17.9464             0       38.6582             0             0      0.225358   9.73609e-12     0.0201813        102069        103087        207358   1.78383e-11
    0.0253654       288.213       288.287      0.189447       22.5214       6.55651             0       13.9976      -1.05406             0        37.487       17.9752             0       39.8138             0             0      0.225156   8.85308e-12     0.0210605        102067        103086        208226   1.62205e-11
     0.025533       288.177        288.29      0.171752       21.7378       6.39453             0       13.7012      -1.14712             0       37.3607        18.004             0       40.9694             0             0      0.224954   7.97007e-12     0.0219397        102066        103085        209094   1.46027e-11
    0.0257007        288.14       288.292      0.154057       20.9542       6.23256             0       13.4048      -1.24017             0       37.2344       18.0328             0        42.125             0             0      0.224752   7.08706e-12     0.0228188        102064        103084        209962   1.29848e-11
    0.0258684       288.103       288.295      0.136362       20.1707       6.07059             0       13.1084      -1.33323             0       37.1081       18.0616             0       43.2805             0             0      0.224549   6.20405e-12      0.023698        102062        103083        210830    1.1367e-11
     0.026036       288.072       288.298      0.122158       19.3613       5.90067             0       12.8234      -1.43037             0       36.8482       18.0562             0       44.4699             0             0      0.224379   5.43939e-12     0.0244405        102061        103082        211738   9.96597e-12
    0.0262037       288.059         288.3      0.120705       18.4581       5.70174             0       12.5804      -1.54242             0          36.1       17.9255             0       45.7824             0             0      0.224323   5.10703e-12     0.0246836        102060        103081        212791   9.35703e-12
    0.0263714       288.046       288.302      0.119253       17.5548       5.50281             0       12.3374      -1.65447             0       35.3519       17.7949             0       47.0949             0             0      0.224267   4.77467e-12     0.0249268        102060        103079        213844   8.74809e-12
     0.026539       288.034       288.304        0.1178       16.6515       5.30388             0       12.0944      -1.76652             0       34.6037       17.6643             0       48.4074             0             0      0.224211   4.44232e-12     0.0251699        102059        103078        214897   8.13916e-12
    0.0267067       288.021       288.306      0.116348       15.7482       5.10495             0       11.8514      -1.87857             0       33.8556       17.5336             0       49.7199             0             0      0.224155   4.10996e-12     0.0254131        102059        103077        215950   7.53022e-12
    0.0268744       288.009       288.308      0.114895        14.845       4.90602             0       11.6083      -1.99062             0       33.1074        17.403             0       51.0324             0             0      0.224099   3.77761e-12     0.0256562        102058        103075        217003   6.92128e-12
     0.027042       287.999        288.31      0.113863       13.9067       4.69388             0       11.3576      -2.10426             0       32.3219       17.2198             0       52.3711             0             0      0.224077   3.52721e-12     0.0257536        102058        103074        218084   6.46251e-12
    0.0272097       287.999        288.31      0.114088        12.864       4.44228             0       11.0836      -2.22267             0       31.4246       16.8795             0       53.7878             0             0      0.224154   3.52173e-12     0.0254154        102059        103072        219248   6.45247e-12
    0.0273774       287.999       288.311      0.114313       11.8213       4.19069             0       10.8097      -2.34108             0       30.5274       16.5391             0       55.2045             0             0      0.224232   3.51625e-12     0.0250771        102060        103071        220413   6.44243e-12
     0.027545       287.999       288.312      0.114538       10.7786       3.93909             0       10.5357      -2.45948             0       29.6301       16.1988             0       56.6213             0             0       0.22431   3.51077e-12     0.0247389        102060        103069        221578   6.43239e-12
    0.0277127       287.999       288.312      0.114764       9.73587        3.6875             0       10.2618      -2.57789             0       28.7329       15.8585             0        58.038             0             0      0.224388   3.50529e-12     0.0244007        102061        103067        222743   6.42235e-12
    0.0278804       287.999       288.313      0.114989       8.69316        3.4359             0       9.98786       -2.6963             0       27.8356       15.5182             0       59.4547             0             0      0.224466   3.49981e-12     0.0240624        102062        103066        223908   6.41231e-12
     0.028048       288.004       288.314      0.115258       7.62063        3.1742             0       9.70818      -2.81729             0       26.9606       15.1287             0       60.8534             0             0      0.224548    3.4991e-12     0.0237056        102063        103064        225053   6.41101e-12
    0.0282157        288.02       288.315      0.115637       6.47387       2.88733             0       9.41421      -2.94473             0       26.1412       14.6168             0       62.2071             0             0       0.22464   3.51027e-12     0.0233024        102065        103062        226148   6.43146e-12
    0.0283834       288.036       288.315      0.116016       5.32712       2.60047             0       9.12024      -3.07216             0       25.3217       14.1049             0       63.5608             0             0      0.224733   3.52143e-12     0.0228991        102067        103061        227243   6.45191e-12
    0.0285511       288.053       288.316      0.116395       4.18036        2.3136             0       8.82627       -3.1996             0       24.5022        13.593             0       64.9145             0             0      0.224826   3.53259e-12     0.0224959        102068        103059        228339   6.47236e-12
    0.0287187       288.069       288.317      0.116774        3.0336       2.02674             0        8.5323      -3.32704             0       23.6828       13.0812             0       66.2682             0             0      0.224919   3.54375e-12     0.0220927        102070        103057        229434   6.49282e-12
    0.0288864       288.085       288.318      0.117153       1.88684       1.73987             0       8.23833      -3.45447             0       22.8633       12.5693             0       67.6219             0             0      0.225011   3.55492e-12     0.0216895        102072        103055        230529   6.51327e-12
    0.0290541       288.099       288.318      0.117466      0.789106       1.45435             0       7.94361      -3.58396             0       22.1061       12.0193             0       68.8864             0             0      0.224943    3.5171e-12     0.0219852        102074        103054        231545   6.44399e-12
    0.0292217       288.107       288.319      0.117639       -0.2056       1.17168             0       7.64733      -3.71777             0         21.48        11.389             0       69.9634             0             0      0.224537   3.37635e-12     0.0237502        102077        103052        232394   6.18611e-12
    0.0293894       288.116       288.319      0.117813      -1.20031      0.889003             0       7.35105      -3.85157             0       20.8538       10.7588             0       71.0405             0             0      0.224132    3.2356e-12     0.0255151        102079        103050        233243   5.92822e-12
    0.0295571       288.124        288.32      0.117987      -2.19501      0.606327             0       7.05476      -3.98538             0       20.2276       10.1286             0       72.1175             0             0      0.223726   3.09485e-12       0.02728        102082        103049        234091   5.67034e-12
    0.0297247       288.133        288.32      0.118161      -3.18972      0.323652             0       6.75848      -4.11918             0       19.6014       9.49835             0       73.1945             0             0       0.22332    2.9541e-12     0.0290449        102085        103047        234940   5.41246e-12
    0.0298924       288.142       288.321      0.118334      -4.18442     0.0409761             0        6.4622      -4.25299             0       18.9753       8.86813             0       74.2715             0             0      0.222914   2.81335e-12     0.0308098        102088        103045        235789   5.15458e-12
    0.0300601       288.141       288.321       0.11846      -4.97639     -0.247756             0       6.16849      -4.38673             0       18.4791       8.21647             0       75.2017             0             0       0.22207   2.63727e-12     0.0344771        102090        103044        236509   4.83197e-12
    0.0302277       288.125       288.321      0.118497      -5.40513      -0.54734             0       5.87939      -4.52034             0       18.2159       7.52642             0        75.869             0             0      0.220443   2.39791e-12     0.0415528        102093        103043        237000   4.39341e-12
    0.0303954       288.108       288.321      0.118535      -5.83387     -0.846924             0       5.59029      -4.65396             0       17.9527       6.83637             0       76.5362             0             0      0.218815   2.15854e-12     0.0486285        102096        103041        237491   3.95485e-12
    0.0305631       288.092       288.321      0.118573       -6.2626      -1.14651             0       5.30119      -4.78757             0       17.6895       6.14632             0       77.2034             0             0      0.217188   1.91918e-12     0.0557042        102099        103040        237982   3.51629e-12
    0.0307307       288.075       288.321       0.11861      -6.69134      -1.44609             0       5.01209      -4.92119             0       17.4263       5.45627             0       77.8706             0             0      0.215561   1.67981e-12     0.0627799        102101        103039        238473   3.07773e-12
    0.0308984       288.059       288.321      0.118648      -7.12007      -1.74568             0         4.723       -5.0548             0       17.1631       4.76622             0       78.5378             0             0      0.213933   1.44045e-12     0.0698555        102104        103037        238964   2.63916e-12
    0.0310661       288.044       288.322      0.118678      -7.35814      -2.04119             0       4.43985      -5.18519             0       17.0284       4.08928             0       79.0379             0             0      0.212239   1.22426e-12      0.077221        102106        103036        239330   2.24308e-12
    0.0312337        288.03       288.322      0.118696      -7.30298      -2.33045             0       4.16587      -5.31061             0       17.0912       3.43248             0       79.2811             0             0      0.210443   1.04373e-12     0.0850321        102108        103035        239504   1.91232e-12
    0.0314014       288.017       288.322      0.118714      -7.24782       -2.6197             0       3.89189      -5.43603             0       17.1541       2.77569             0       79.5242             0             0      0.208646   8.63206e-13     0.0928432        102109        103034        239677   1.58155e-12
    0.0315691       288.004       288.322      0.118732      -7.19266      -2.90896             0       3.61792      -5.56145             0       17.2169       2.11889             0       79.7674             0             0       0.20685   6.82678e-13      0.100654        102111        103033        239850   1.25079e-12
    0.0317367       287.991       288.322       0.11875       -7.1375      -3.19821             0       3.34394      -5.68687             0       17.2798        1.4621             0       80.0105             0             0      0.205053   5.02149e-13      0.108465        102112        103033        240024   9.20031e-13
    0.0319044       287.978       288.322      0.118768      -7.08234      -3.48747             0       3.06996       -5.8123             0       17.3427      0.805301             0       80.2536             0             0      0.203256   3.21621e-13      0.116276        102114        103032        240197   5.89269e-13
    0.0320721       287.965       288.322      0.118742      -7.01953      -3.75366             0       2.80362      -5.93205             0        17.497      0.196634             0       80.3464             0             0      0.201861   2.04156e-13      0.122342        102114        103031        240270   3.74052e-13
    0.0322397       287.952       288.322       0.11866      -6.94659      -3.98927             0       2.54743      -6.04431             0       17.7727     -0.348196             0       80.2397             0             0      0.200998   1.70338e-13      0.126094        102115        103030        240209    3.1209e-13
    0.0324074        287.94       288.322      0.118577      -6.87365      -4.22487             0       2.29124      -6.15656             0       18.0484     -0.893026             0        80.133             0             0      0.200136   1.36519e-13      0.129845        102115        103030        240148   2.50129e-13
    0.0325751       287.927       288.322      0.118494      -6.80071      -4.46048             0       2.03505      -6.26881             0       18.3241      -1.43786             0       80.0264             0             0      0.199273   1.02701e-13      0.133597        102115        103029        240087   1.88168e-13
    0.0327427       287.915       288.322      0.118411      -6.72777      -4.69608             0       1.77886      -6.38106             0       18.5997      -1.98269             0       79.9197             0             0       0.19841   6.88828e-14      0.137348        102115        103029        240026   1.26206e-13
    0.0329104       287.902       288.322      0.118328      -6.65483      -4.93168             0       1.52266      -6.49331             0       18.8754      -2.52752             0        79.813             0             0      0.197547   3.50646e-14        0.1411        102115        103028        239964   6.42448e-14
    0.0330781       287.887       288.322      0.118269      -6.63835      -5.13355             0       1.27594       -6.5985             0       19.1651      -2.96789             0       79.5685             0             0      0.196914   1.57885e-14      0.143852        102115        103028        239852   2.89275e-14
    0.0332457       287.869       288.321      0.118238      -6.68664      -5.29672             0       1.04008      -6.69558             0       19.4708      -3.28841             0       79.1659             0             0      0.196545   1.31988e-14      0.145456        102114        103027        239680   2.41826e-14
    0.0334134       287.851       288.321      0.118207      -6.73494      -5.45988             0      0.804228      -6.79267             0       19.7766      -3.60892             0       78.7632             0             0      0.196176    1.0609e-14       0.14706        102114        103027        239508   1.94377e-14
    0.0335811       287.833        288.32      0.118176      -6.78323      -5.62304             0      0.568371      -6.88975             0       20.0823      -3.92944             0       78.3606             0             0      0.195807   8.01929e-15      0.148665        102113        103027        239336   1.46928e-14
    0.0337487       287.815        288.32      0.118145      -6.83152       -5.7862             0      0.332515      -6.98684             0        20.388      -4.24995             0       77.9579             0             0      0.195438   5.42955e-15      0.150269        102112        103027        239164   9.94794e-15
    0.0339164       287.797        288.32      0.118114      -6.87982      -5.94936             0     0.0966581      -7.08392             0       20.6937      -4.57046             0       77.5553             0             0      0.195069    2.8398e-15      0.151873        102111        103026        238992   5.20305e-15
    0.0340841       287.781       288.319      0.118138      -6.93693       -6.0862             0     -0.127574       -7.1723             0       20.9402      -4.74854             0       77.0314             0             0      0.194787   1.48689e-15      0.153098        102110        103026        238811   2.72426e-15
    0.0342518       287.768       288.319      0.118219       -7.0028      -6.19689             0     -0.340252      -7.25201             0       21.1278      -4.78503             0       76.3871             0             0      0.194592   1.36345e-15      0.153946        102109        103026        238622   2.49809e-15
    0.0344194       287.756       288.318      0.118299      -7.06867      -6.30757             0     -0.552929      -7.33173             0       21.3154      -4.82152             0       75.7427             0             0      0.194397      1.24e-15      0.154794        102108        103026        238433   2.27192e-15
    0.0345871       287.743       288.318       0.11838      -7.13454      -6.41825             0     -0.765607      -7.41144             0        21.503      -4.85801             0       75.0984             0             0      0.194202   1.11656e-15      0.155642        102107        103027        238244   2.04574e-15
    0.0347548        287.73       288.317       0.11846      -7.20041      -6.52894             0     -0.978284      -7.49116             0       21.6907      -4.89449             0        74.454             0             0      0.194007   9.93115e-16      0.156489        102105        103027        238055   1.81957e-15
    0.0349224       287.717       288.317      0.118541      -7.26629      -6.63962             0      -1.19096      -7.57087             0       21.8783      -4.93098             0       73.8096             0             0      0.193812   8.69671e-16      0.157337        102104        103027        237866    1.5934e-15
    0.0350901       287.707       288.316      0.118704      -7.31164      -6.73615             0      -1.39272      -7.63927             0       21.9981      -4.84069             0       73.0552             0             0      0.193616   8.10131e-16      0.158189        102103        103027        237698   1.48431e-15
    0.0352578         287.7       288.316      0.118938      -7.33933      -6.82049             0      -1.58507      -7.69793             0       22.0597      -4.64121             0        72.206             0             0       0.19342   8.05619e-16      0.159045        102101        103028        237548   1.47604e-15