#           y             T         TMean   TPrime2Mean           U_x           U_y           U_z       UMean_x       UMean_y       UMean_z UPrime2Mea... UPrime2Mea... UPrime2Mea... UPrime2Mea... UPrime2Mea... UPrime2Mea...            O2           H2O          C3H8             p         pMean   pPrime2Mean           CO2
  1.11022e-19       288.037       288.087      0.119062       20.8122   5.42547e-16             0       19.9148  -2.09631e-16             0       22.7547  -9.09015e-17             0   4.59582e-16             0             0      0.229178   4.90483e-12     0.0035752        102191        103152        229350   8.98657e-12
  0.000500501        288.15       288.091      0.121066       20.8134     -0.004596             0       19.9172     0.0542109             0       22.8023    -0.0563415             0      0.054414             0             0      0.228262    1.2737e-11    0.00755608        102191        103152        229300   2.33366e-11
     0.001001       288.264       288.095      0.123126       20.8145   -0.00923226             0       19.9196      0.108422             0         22.85      -0.11267             0      0.108989             0             0      0.227341   2.06364e-11     0.0115609        102191        103152        229250   3.78097e-11
    0.0015015       289.132       288.113      0.153565       20.8084    -0.0339593             0       19.9275      0.162601             0       22.9877     -0.162452             0      0.243789             0             0      0.223672   6.20611e-11      0.027513        102191        103151        229066   1.13708e-10
     0.002002       290.007       288.132      0.185087       20.8024    -0.0587928             0       19.9353       0.21678             0       23.1262     -0.212233             0       0.37902             0             0      0.219996   1.03669e-10     0.0434951        102190        103151        228882   1.89941e-10
    0.0025025       292.622       288.183      0.486394       20.8066     -0.110111             0       19.9511      0.270931             0       23.4577     -0.261883             0      0.621362             0             0      0.214599   1.90846e-10     0.0669627        102190        103151        228597   3.49666e-10
     0.003003       295.247       288.234        0.7957       20.8116     -0.161819             0       19.9669      0.325085             0       23.7904      -0.31143             0      0.864432             0             0      0.209213   2.78064e-10     0.0903773        102189        103150        228312   5.09465e-10
    0.0035035       299.406       288.334       2.43018       20.9553     -0.277907             0       20.0005      0.379624             0       24.3317     -0.344063             0       1.22805             0             0       0.20585   3.71982e-10      0.104998        102189        103150        228007    6.8154e-10
     0.004004       303.572       288.434       4.07979       21.1011     -0.393578             0        20.034      0.434188             0       24.8722     -0.376367             0       1.59273             0             0       0.20251   4.65781e-10      0.119522        102189        103150        227702   8.53397e-10
    0.0045045       308.568       288.554       7.60529       21.4989     -0.457444             0       20.0604      0.491714             0       25.3236     -0.367833             0       2.08752             0             0      0.201918   5.44811e-10      0.122095        102190        103149        227358   9.98195e-10
   0.00500501       313.562       288.673       11.1219       21.8979     -0.517725             0       20.0861      0.549283             0         25.77     -0.358186             0        2.5834             0             0      0.201326   6.24328e-10       0.12467        102191        103148        227013   1.14388e-09
   0.00550551       318.313       288.747       13.7555       22.4029     -0.223201             0       20.0532      0.611029             0       25.7113      -0.23827             0       3.18582             0             0      0.200675   7.52089e-10      0.127501        102192        103148        226661   1.37797e-09
   0.00600601       323.026        288.82       16.3499       22.9024     0.0753644             0       20.0187      0.672857             0       25.6451     -0.116095             0       3.78836             0             0      0.200002   8.80008e-10      0.130425        102192        103147        226310   1.61234e-09
   0.00650651       324.569        288.82       15.7151       22.9495      0.706568             0       19.8637       0.74145             0       24.9665      0.192112             0       4.40073             0             0      0.197579   1.02097e-09      0.140963        102192        103146        226041    1.8706e-09
   0.00700701       326.069       288.819       15.0574       22.9822       1.34088             0       19.7067      0.810114             0       24.2845      0.503988             0       5.01236             0             0      0.195154   1.16015e-09      0.151504        102193        103145        225770   2.12561e-09
   0.00750751       324.506       288.785       12.7925       21.9934       2.19405             0       19.4017      0.883732             0       23.3686       1.07418             0       5.57211             0             0      0.192663   1.17433e-09      0.162333        102194        103145        225436   2.15159e-09
   0.00800801       322.925        288.75       10.5318       20.9936       3.04378             0       19.0948      0.957259             0       22.4557       1.64559             0       6.13139             0             0      0.190183   1.18668e-09      0.173116        102195        103144        225099   2.17422e-09
   0.00850851        320.25        288.72       8.52246        19.313       3.68201             0       18.6732       1.02516             0       21.7236       2.29132             0       6.66131             0             0      0.188355   1.08658e-09      0.181066        102195        103143        224606   1.99081e-09
   0.00900901       317.554        288.69        6.5264       17.6375       4.31035             0       18.2504       1.09256             0       20.9988       2.92945             0        7.1932             0             0      0.186492   9.85847e-10      0.189166        102195        103142        224114   1.80626e-09
   0.00950951       313.758        288.67       5.25269       16.2347       4.39999             0       17.7652       1.13219             0       20.6733       3.15302             0       7.83201             0             0      0.182739   8.50873e-10      0.205481        102194        103142        223616   1.55896e-09
      0.01001       309.947        288.65       3.99253        14.844       4.48454             0       17.2802       1.17126             0         20.37       3.36692             0        8.4751             0             0      0.178924   7.15356e-10      0.222071        102193        103141        223120   1.31067e-09
    0.0105105       305.417        288.63       3.39588       14.0505       4.31966             0       16.8092       1.18264             0       21.1507       3.10667             0       9.32755             0             0      0.172013   5.53226e-10      0.252117        102190        103140        222659   1.01361e-09
     0.011011       300.916        288.61       2.80718       13.2648        4.1555             0       16.3388       1.19378             0       21.9713       2.84403             0       10.1825             0             0      0.165146   3.91901e-10      0.281973        102188        103138        222201   7.18035e-10
    0.0115115       297.771       288.581       2.57199        12.827       4.02359             0       15.8911       1.19464             0       24.5668         2.475             0       11.1482             0             0      0.160223   2.66371e-10      0.303378        102184        103137        221904   4.88042e-10
     0.012012       294.683       288.551       2.33917       12.4008       3.89174             0       15.4432       1.19552             0        27.197       2.10671             0       12.1147             0             0      0.155424   1.42861e-10      0.324242        102180        103136        221614   2.61748e-10
    0.0125125       293.877       288.517       2.20284        12.447       3.76232             0       14.9845       1.19723             0       31.2377       1.76844             0       13.1099             0             0      0.155695   1.01452e-10      0.323067        102175        103134        221622   1.85879e-10
     0.013013       293.105       288.483       2.06547       12.5104        3.6306             0       14.5273       1.19846             0       35.2828       1.42484             0       14.1098             0             0      0.155984   6.09718e-11      0.321807        102170        103133        221637   1.11712e-10
    0.0135135       293.552       288.456       1.88934       13.2191       3.41282             0       14.1258       1.18182             0       39.4878      0.881557             0       15.2849             0             0      0.157014   5.52825e-11      0.317331        102165        103131        221935   1.01288e-10
     0.014014       294.033       288.428       1.71353       13.9372       3.19048             0       13.7269       1.16465             0       43.6676      0.331733             0       16.4675             0             0      0.157984   4.97891e-11      0.313113        102160        103129        222238    9.1223e-11
    0.0145145       295.695       288.412       1.54875       14.9836       2.81008             0       13.4167       1.12906             0       46.9679     -0.445262             0       17.9131             0             0      0.156886   5.10941e-11      0.317888        102156        103127        222747    9.3614e-11
     0.015015       297.359       288.396       1.38554       16.0363       2.42984             0       13.1075       1.09359             0       50.2328       -1.2213             0       19.3602             0             0      0.155818   5.24127e-11      0.322532        102153        103125        223264   9.60298e-11
    0.0155155       299.089       288.384       1.27293       17.2944       2.05525             0       12.8262       1.06174             0        52.355      -1.96628             0        20.859             0             0       0.15572   5.41705e-11      0.322957        102152        103122        224024   9.92505e-11
     0.016016       300.759       288.373       1.15884       18.5522       1.68411             0       12.5452        1.0306             0       54.4424      -2.70526             0       22.3561             0             0      0.155759   5.58438e-11      0.322788        102151        103120        224791   1.02316e-10
    0.0165165       300.585       288.361      0.999689       19.8037       1.41733             0       12.2739       1.02099             0       55.4798      -3.26286             0       23.8004             0             0      0.159925   5.49578e-11      0.304673        102154        103118        225799   1.00693e-10
     0.017017       300.336       288.349      0.840439       21.0316       1.15406             0       12.0033       1.01223             0       56.4896      -3.81629             0       25.2446             0             0      0.164265   5.38841e-11      0.285802        102157        103116        226811   9.87257e-11
    0.0175175       297.974        288.34      0.678278       21.5917      0.990278             0       11.7501       1.02749             0       56.7194      -4.25087             0       26.6876             0             0      0.173543   4.74739e-11      0.245467        102163        103114        227972    8.6981e-11
     0.018018       295.609       288.331      0.519708       22.1165       0.83545             0       11.4971       1.04365             0       56.9229      -4.68419             0       28.1323             0             0      0.182823   4.09056e-11      0.205118        102168        103113        229137   7.49467e-11
    0.0185185       293.145        288.33      0.457272       21.6951      0.920416             0       11.2472       1.08372             0       56.4198      -5.08376             0       29.6186             0             0      0.192187   3.01042e-11      0.164406        102173        103111        230387   5.51565e-11
     0.019019       290.739        288.33      0.396755       21.2556       1.00963             0       10.9967       1.12464             0       55.8837      -5.48105             0        31.105             0             0      0.201329   1.94449e-11      0.124658        102178        103109        231637   3.56267e-11
    0.0195195       289.794       288.336      0.384828       20.3568       1.20629             0       10.7351       1.18714             0       54.5099      -5.82059             0       32.5939             0             0      0.204865   1.23842e-11      0.109282        102182        103108        232866   2.26901e-11
      0.02002        288.88       288.341       0.37311       19.4651       1.39921             0       10.4732       1.25066             0       53.1084      -6.15489             0       34.0806             0             0      0.208251   5.52598e-12     0.0945602        102185        103106        234092   1.01246e-11
    0.0205205       288.716       288.347      0.366404       18.7415       1.50203             0       10.2052       1.33861             0       51.0433      -6.36367             0       35.5146             0             0      0.208025   3.52882e-12     0.0955435        102188        103104        235259   6.46545e-12
     0.021021       288.557       288.353      0.359824       18.0306       1.60507             0       9.93791       1.42767             0       48.9724      -6.56348             0       36.9465             0             0      0.207757   1.59206e-12     0.0967077        102190        103103        236422   2.91696e-12
    0.0215215       288.508       288.359      0.356113       17.6101       1.71292             0       9.68442       1.54187             0       46.7695      -6.55876             0       38.3279             0             0       0.20654   1.03316e-12      0.101999        102191        103102        237471   1.89294e-12
     0.022022        288.46       288.366      0.352635       17.1923       1.82721             0       9.43263       1.65719             0       44.5745      -6.54397             0       39.7076             0             0      0.205325   4.90372e-13      0.107284        102193        103100        238513   8.98453e-13
    0.0225225        288.42       288.372       0.35423       16.8345       2.08138             0       9.21791       1.79715             0       42.5528      -6.31033             0       41.0484             0             0      0.204135   2.97738e-13      0.112457        102194        103099        239413   5.45511e-13
     0.023023        288.38       288.378      0.355903       16.4729        2.3415             0       9.00524       1.93806             0       40.5316       -6.0675             0       42.3895             0             0      0.202967   1.12209e-13      0.117534        102196        103098        240304   2.05589e-13
    0.0235235       288.335        288.38      0.359207       16.0334        2.7252             0       8.83506        2.0988             0       38.5201        -5.634             0       43.7355             0             0      0.202257   7.40417e-14      0.120621        102197        103098        241025   1.35658e-13
     0.024024       288.291       288.383      0.362381       15.5924       3.11395             0       8.66632       2.26051             0        36.502      -5.18826             0       45.0824             0             0      0.201563   3.72912e-14      0.123637        102198        103097        241736   6.83245e-14
    0.0245245       288.244       288.383       0.36299       15.1218       3.60282             0       8.52602       2.44158             0       34.3529      -4.49964             0       46.4462             0             0      0.201192   2.86481e-14      0.125254        102199        103096        242269   5.24887e-14
     0.025025       288.197       288.382      0.363472        14.652       4.09534             0       8.38664       2.62373             0       32.2086      -3.79322             0       47.8111             0             0      0.200825   2.02993e-14      0.126846        102200        103096        242786   3.71921e-14
    0.0255255       288.149       288.378      0.361543       14.1977       4.65701             0        8.2646       2.82627             0       30.1561      -2.74843             0       49.1973             0             0      0.200566   1.75415e-14      0.127973        102200        103095        243012   3.21392e-14
     0.026026       288.101       288.374      0.359605       13.7442         5.221             0       8.14338       3.02984             0       28.1325        -1.683             0       50.5867             0             0      0.200302   1.48636e-14      0.129122        102200        103095        243219   2.72328e-14
    0.0265265       288.046       288.367      0.357513       13.3056       5.82741             0       8.03677        3.2522             0       26.6372     -0.241282             0       52.0331             0             0      0.199948   1.36433e-14      0.130661        102200        103095        243078   2.49971e-14
     0.027027        287.99        288.36      0.355415       12.8668       6.43423             0       7.93041       3.47528             0       25.1893       1.22032             0       53.4813             0             0      0.199578   1.24527e-14      0.132271        102200        103095        242919   2.28156e-14
    0.0275275       287.931       288.351      0.353203       12.4252        7.0485             0       7.82851       3.71095             0       24.5723       3.03014             0       54.9608             0             0      0.198924   1.17812e-14      0.135112        102199        103095        242431   2.15854e-14
     0.028028       287.872       288.342      0.350911       11.9825       7.66161             0       7.72604        3.9469             0       24.0025       4.85283             0       56.4324             0             0      0.198238   1.11249e-14      0.138096        102199        103095        241922   2.03828e-14
    0.0285285       287.821       288.333      0.347272       11.5222       8.25538             0       7.61384        4.1874             0       24.2274       6.89226             0       57.7722             0             0      0.197001   1.07233e-14      0.143475        102198        103096        241070    1.9647e-14
     0.029029       287.771       288.325       0.34352       11.0601        8.8466             0       7.50074       4.42786             0       24.4872       8.93163             0        59.094             0             0      0.195726   1.03277e-14      0.149019        102197        103096        240207   1.89223e-14
    0.0295295       287.729       288.319      0.337939       10.5711        9.3963             0         7.373       4.66757             0       25.3151       10.9701             0       60.1238             0             0       0.19383   1.00311e-14      0.157259        102196        103097        239155   1.83788e-14
      0.03003       287.687       288.314      0.332322        10.079       9.94326             0       7.24476       4.90712             0        26.167       12.9961             0       61.1334             0             0      0.191903   9.73668e-15      0.165641        102195        103097        238094   1.78394e-14
    0.0305305       287.657        288.31      0.326124       9.53768       10.4471             0       7.10863       5.14426             0       27.3945       14.8264             0       61.8277             0             0      0.189464   9.47791e-15      0.176243        102193        103098        236899   1.73653e-14
     0.031031       287.627       288.306      0.319945       8.99155       10.9501             0       6.97246       5.38106             0       28.6413       16.6371             0       62.5056             0             0      0.187016   9.22039e-15      0.186886        102191        103099        235702   1.68935e-14
    0.0315315        287.61       288.303      0.314056       8.37234       11.4391             0       6.83574        5.6128             0       30.1806       18.1497             0       62.9353             0             0      0.184425   8.98183e-15      0.198151        102190        103100        234472   1.64564e-14
     0.032032       287.593       288.299      0.308238        7.7469         11.93             0       6.69904       5.84377             0       31.7381       19.6394             0       63.3514             0             0      0.181859   8.73895e-15      0.209308        102189        103102        233251   1.60114e-14
    0.0325325       287.587       288.295      0.303468       7.03038       12.4476             0       6.56263       6.06323             0       33.5623       20.7946             0       63.5703             0             0      0.179656   8.43286e-15      0.218887        102187        103103        232136   1.54506e-14
     0.033033       287.581       288.291      0.298877       6.30772       12.9684             0       6.42598       6.28119             0       35.3994       21.9231             0       63.7736             0             0      0.177489   8.12157e-15      0.228307        102186        103105        231029   1.48802e-14
    0.0335335       287.583       288.286      0.296824       5.49822       13.5359             0       6.28609        6.4777             0         37.42       22.6746             0       63.7562             0             0      0.175838    7.7367e-15      0.235488        102183        103107        230043   1.41751e-14
     0.034034       287.586        288.28      0.294978       4.68677       14.1059             0       6.14553       6.67183             0       39.4425       23.3935             0       63.7162             0             0      0.174221   7.35495e-15      0.242517        102181        103108        229070   1.34756e-14
    0.0345345       287.594       288.275       0.29596        3.8486        14.709             0       5.99592       6.83319             0         41.49       23.6649             0       63.3664             0             0      0.173086   7.01598e-15       0.24745        102180        103110        228272   1.28546e-14
     0.035035       287.603        288.27      0.297045       3.01697        15.308             0       5.84495       6.99122             0       43.5288       23.8988             0       62.9866             0             0      0.171976     6.684e-15      0.252277        102179        103113        227491   1.22463e-14
    0.0355355       287.615       288.265      0.299508       2.27208       15.8538             0       5.67585       7.10492             0       45.4512       23.6348             0       62.2068             0             0      0.171192   6.44496e-15      0.255685        102180        103115        226942   1.18084e-14
     0.036036       287.628       288.261      0.301878       1.54407       16.3876             0       5.50448       7.21449             0       47.3606       23.3321             0       61.3917             0             0      0.170431   6.21004e-15      0.258997        102180        103118        226408    1.1378e-14
    0.0365365       287.645       288.259      0.303066       1.03361       16.7666             0       5.30389       7.27078             0       49.1003       22.5306             0       60.1191             0             0      0.169958   6.02839e-15      0.261052        102183        103121        226079   1.10451e-14
     0.037037       287.663       288.258      0.304095      0.542254       17.1285             0       5.10029       7.32247             0        50.827        21.693             0       58.8084             0             0      0.169504    5.8457e-15      0.263025        102187        103124        225764   1.07104e-14
    0.0375375       287.695       288.258      0.303135      0.290059       17.2769             0       4.85914       7.31655             0        52.392       20.4033             0       57.0194             0             0      0.169288   5.65014e-15      0.263963        102193        103127        225621   1.03521e-14
     0.038038       287.729       288.258      0.302088     0.0457871       17.4045             0       4.61439       7.30597             0       53.9496       19.0864             0       55.1934             0             0       0.16907   5.45262e-15      0.264915        102200        103131        225495   9.99022e-15
    0.0385385       287.795       288.258      0.299975     -0.102153       17.2793             0         4.326       7.23889             0        55.418       17.4402             0       52.9169             0             0      0.168815   5.23119e-15      0.266022        102208        103135        225567   9.58451e-15
     0.039039       287.871       288.258      0.297689     -0.251295       17.1335             0       4.03388       7.16725             0       56.8843       15.7796             0       50.6101             0             0      0.168528   4.99315e-15      0.267268        102217        103139        225656   9.14838e-15
    0.0395395       288.049       288.258      0.293369     -0.414636       16.7441             0       3.69753       7.04177             0       58.3265       13.9499             0       47.9444             0             0      0.167867   4.55885e-15      0.270143        102228        103143        225941   8.35267e-15
      0.04004       288.231       288.259      0.288749      -0.56553       16.3338             0       3.35859       6.91163             0       59.7519       12.1121             0       45.2606             0             0      0.167203   4.11421e-15      0.273032        102239        103147        226241   7.53801e-15
    0.0405405       288.459        288.26      0.280662     -0.573288        15.683             0       2.98985       6.72781             0       60.9833       10.1811             0       42.3675             0             0      0.166505   3.55058e-15      0.276064        102251        103152        226710   6.50533e-15
     0.041041        288.68       288.262      0.272392     -0.541637       15.0138             0       2.62076        6.5393             0       62.1614       8.24328             0       39.4643             0             0      0.165873   3.00951e-15      0.278815        102264        103156        227185   5.51398e-15
    0.0415415       288.816       288.265      0.262061    -0.0687908        14.139             0       2.24773       6.29825             0       62.7437       6.22888             0       36.4466             0             0      0.165963   2.72103e-15      0.278423        102275        103161        227736   4.98543e-15
     0.042042       288.945       288.268      0.251692      0.441088       13.2499             0        1.8759       6.05289             0       63.2594       4.21628             0       33.4233             0             0      0.166188   2.45258e-15      0.277443        102286        103166        228291   4.49359e-15
    0.0425425       289.002       288.272       0.24091        1.3548       12.2056             0       1.51696       5.76049             0       63.0506       2.22343             0       30.3387             0             0      0.167888   2.40261e-15      0.270051        102298        103170        228895   4.40203e-15
     0.043043       289.052       288.277      0.230093       2.24649       11.1599             0       1.15888       5.46487             0       62.8142      0.246466             0       27.2585             0             0      0.169741   2.35686e-15      0.261995        102311        103175        229509   4.31821e-15
    0.0435435       289.028       288.286      0.218899       2.90414       10.0984             0      0.809821       5.13511             0       62.2853      -1.56177             0       24.2246             0             0      0.173216   2.35601e-15      0.246886        102322        103180        230222   4.31665e-15
     0.044044        288.99       288.295      0.207806       3.47082        9.0612             0      0.462994       4.80252             0       61.7313      -3.32837             0       21.2071             0             0      0.176724   2.34662e-15      0.231636        102332        103184        230942   4.29945e-15
    0.0445445       288.815       288.309      0.197759       3.09472       8.27591             0      0.139305       4.44058             0       60.9168      -4.66342             0       18.3595             0             0      0.180566   2.24878e-15      0.214929        102341        103188        231740   4.12019e-15
     0.045045       288.631       288.322      0.188146       2.65532       7.50665             0     -0.178916       4.07515             0       60.0338       -5.9278             0       15.5357             0             0      0.184325   2.13318e-15      0.198588        102349        103193        232544   3.90839e-15
    0.0455455       288.351       288.334      0.182926       1.57593       6.89962             0      -0.44185       3.67442             0       58.4565      -6.47752             0        12.953             0             0      0.187231   1.83802e-15      0.185954        102356        103197        233402   3.36759e-15