#           y             T         TMean   TPrime2Mean           U_x           U_y           U_z       UMean_x       UMean_y       UMean_z UPrime2Mea... UPrime2Mea... UPrime2Mea... UPrime2Mea... UPrime2Mea... UPrime2Mea...            O2           H2O          C3H8             p         pMean   pPrime2Mean           CO2
  1.11022e-19        288.44        288.56     0.0964089       8.87505  -3.90305e-17             0       12.7018  -4.08242e-19             0       34.9178   2.93886e-18             0   6.79913e-18             0             0      0.190253   2.44048e-15      0.172814        102580        103147        287397   4.47142e-15
  0.000500501       288.513       288.568       0.09509       8.73617     -0.175954             0       12.6618    -0.0018404             0       34.4422     0.0132487             0     0.0306512             0             0      0.190893   2.42152e-15      0.170031        102580        103147        287402   4.43668e-15
     0.001001       288.586       288.575     0.0937765       8.59729     -0.351963             0       12.6216   -0.00368092             0        33.965      0.026582             0     0.0613903             0             0      0.191532   2.40254e-15      0.167254        102581        103147        287408   4.40191e-15
    0.0015015       288.773       288.588     0.0951379       8.45649     -0.555312             0       12.5311   -0.00558154             0       32.6537     0.0821393             0      0.135981             0             0      0.191593   2.37432e-15      0.166986        102581        103147        287402   4.35019e-15
     0.002002       288.961       288.601     0.0965229       8.31634     -0.758734             0       12.4407   -0.00748432             0       31.3416      0.137753             0      0.210771             0             0       0.19165   2.34615e-15      0.166739        102581        103147        287396   4.29859e-15
    0.0025025       289.106       288.608      0.103765       8.33625     -0.980505             0       12.3561   -0.00992665             0       29.8059      0.207459             0      0.335065             0             0      0.190538    2.3339e-15      0.171573        102581        103147        287375   4.27615e-15
     0.003003       289.251       288.614       0.11101       8.35555      -1.20226             0       12.2718    -0.0123755             0        28.272      0.277037             0      0.459639             0             0       0.18943    2.3217e-15      0.176391        102582        103146        287354   4.25378e-15
    0.0035035       289.285       288.617      0.118963       8.27312      -1.42215             0       12.2157    -0.0159103             0       27.0598       0.32532             0      0.630458             0             0      0.188903   2.31653e-15      0.178684        102581        103146        287358   4.24432e-15
     0.004004       289.319        288.62      0.126878       8.18829      -1.64203             0       12.1598    -0.0194522             0       25.8499      0.373493             0      0.801599             0             0      0.188383   2.31139e-15      0.180944        102581        103146        287362    4.2349e-15
    0.0045045       289.318       288.623      0.130226       7.80463      -1.86039             0       12.1167    -0.0238699             0       24.9109      0.408025             0       1.01255             0             0      0.188807   2.30888e-15        0.1791        102581        103146        287336   4.23031e-15
   0.00500501       289.317       288.626      0.133485       7.41836      -2.07893             0       12.0736    -0.0282936             0       23.9737      0.442631             0       1.22384             0             0      0.189238   2.30641e-15      0.177225        102581        103145        287310   4.22578e-15
   0.00550551       289.306       288.634      0.127869       6.77453      -2.31513             0       12.0289    -0.0333123             0        23.198      0.484645             0        1.4687             0             0      0.190403    2.3072e-15       0.17216        102579        103145        287272   4.22721e-15
   0.00600601       289.296       288.641      0.122193        6.1301      -2.55187             0       11.9842    -0.0383477             0       22.4245      0.526756             0       1.71397             0             0      0.191565     2.308e-15      0.167109        102578        103145        287234   4.22869e-15
   0.00650651       289.289       288.651      0.111474       5.43566      -2.83173             0       11.9394    -0.0447587             0       21.8362      0.576861             0       1.99214             0             0      0.192491    2.3106e-15      0.163082        102576        103144        287181   4.23345e-15
   0.00700701       289.282       288.661      0.100805       4.74218      -3.11221             0       11.8947    -0.0511992             0       21.2511      0.626914             0       2.27085             0             0      0.193409   2.31324e-15      0.159089        102574        103144        287127   4.23829e-15
   0.00750751       289.275       288.668     0.0936603       4.11577      -3.43635             0       11.8568    -0.0597222             0       20.8983      0.673304             0       2.58798             0             0      0.193782   2.31906e-15       0.15747        102571        103144        287059   4.24894e-15
   0.00800801       289.267       288.674     0.0865813       3.49093      -3.76099             0       11.8191    -0.0682776             0       20.5486      0.719637             0       2.90582             0             0      0.194152    2.3249e-15      0.155861        102568        103143        286991   4.25966e-15
   0.00850851       289.253       288.676     0.0835194       2.96375      -4.11686             0       11.7873    -0.0788219             0       20.3937      0.762435             0       3.26783             0             0      0.194384   2.33266e-15      0.154853        102564        103143        286913   4.27388e-15
   0.00900901       289.237       288.678     0.0804799        2.4402      -4.47267             0       11.7555    -0.0893937             0         20.24      0.805254             0        3.6307             0             0      0.194611   2.34052e-15      0.153867        102560        103143        286835   4.28827e-15
   0.00950951       289.206       288.679     0.0786599       2.11552      -4.82508             0       11.7242     -0.101469             0       20.1593       0.84924             0        4.0408             0             0      0.194557   2.35341e-15      0.154099        102555        103142        286757   4.31188e-15
      0.01001       289.174       288.679     0.0768502       1.79722      -5.17647             0       11.6928     -0.113566             0       20.0778      0.893044             0        4.4519             0             0        0.1945   2.36631e-15      0.154347        102550        103142        286679   4.33552e-15
    0.0105105       289.128       288.679     0.0755393       1.79154      -5.47791             0       11.6588     -0.126721             0       19.9539      0.927895             0       4.91207             0             0      0.194265    2.3798e-15       0.15537        102543        103142        286611   4.36024e-15
     0.011011       289.083       288.679     0.0742377       1.79287       -5.7778             0       11.6247     -0.139891             0       19.8273      0.962065             0       5.37331             0             0      0.194028   2.39309e-15      0.156399        102537        103141        286543   4.38458e-15
    0.0115115       289.045       288.678     0.0733486         2.106      -6.00887             0       11.5873      -0.15374             0       19.5821      0.965951             0       5.88192             0             0      0.193725   2.39752e-15       0.15772        102530        103141        286468    4.3927e-15
     0.012012       289.007       288.676      0.072465       2.42381      -6.23881             0       11.5498     -0.167592             0       19.3325       0.96893             0       6.39142             0             0      0.193413   2.40182e-15      0.159073        102524        103140        286395   4.40059e-15
    0.0125125       288.961       288.675     0.0718092       2.93195       -6.4229             0       11.5072     -0.181559             0       18.9074      0.935022             0        6.9372             0             0      0.192795   2.40115e-15      0.161763        102518        103140        286371   4.39936e-15
     0.013013       288.916       288.674     0.0711488       3.44279      -6.60608             0       11.4642     -0.195479             0       18.4755      0.901088             0       7.48303             0             0       0.19217    2.4004e-15      0.164479        102511        103140        286348   4.39799e-15
    0.0135135       288.866       288.674     0.0703188       4.05472      -6.75534             0       11.4091     -0.207658             0       17.7913      0.866183             0       8.03104             0             0       0.19132    2.3969e-15      0.168176        102506        103139        286327   4.39157e-15
     0.014014       288.816       288.673      0.069491       4.66936      -6.90261             0       11.3535     -0.219712             0       17.0986       0.83243             0       8.57758             0             0      0.190469   2.39328e-15      0.171872        102500        103139        286306   4.38494e-15
    0.0145145       288.796       288.674       0.06874       5.37768      -6.98118             0       11.2772     -0.227446             0       16.1088      0.838679             0        9.0727             0             0      0.189624   2.38562e-15      0.175546        102496        103138        286280   4.37089e-15
     0.015015       288.776       288.674     0.0679969       6.08643      -7.05799             0       11.2002     -0.235049             0       15.1127      0.845421             0       9.56542             0             0      0.188781   2.37789e-15      0.179213        102491        103137        286256   4.35675e-15
    0.0155155       288.779       288.674     0.0675105       6.80896      -7.07788             0       11.1013     -0.238376             0       13.9092      0.868077             0       9.98079             0             0      0.187998   2.36838e-15      0.182618        102488        103137        286279   4.33932e-15
     0.016016       288.781       288.675     0.0670242       7.52766      -7.09902             0       11.0019     -0.241676             0       12.7049      0.888972             0       10.3942             0             0      0.187227   2.35899e-15      0.185971        102485        103136        286301   4.32212e-15
    0.0165165        288.78       288.675      0.066541       8.13044      -7.15812             0       10.8868     -0.244145             0       11.4742      0.856609             0       10.7488             0             0      0.186821   2.35322e-15      0.187736        102483        103136        286299   4.31153e-15
     0.017017       288.777       288.676     0.0660623       8.73053      -7.22066             0       10.7714     -0.246668             0       10.2478      0.821338             0       11.1015             0             0      0.186426   2.34754e-15      0.189453        102480        103136        286295   4.30114e-15
    0.0175175       288.768       288.677     0.0657104        9.2538      -7.38089             0       10.6462     -0.250745             0       9.14567      0.703456             0       11.4014             0             0      0.186347   2.34486e-15      0.189798        102479        103135        286253   4.29623e-15
     0.018018       288.759       288.677     0.0653659       9.77897      -7.54291             0       10.5208     -0.254852             0       8.05192      0.583366             0       11.6981             0             0      0.186271   2.34218e-15      0.190128        102477        103135        286208   4.29131e-15
    0.0185185       288.747       288.678     0.0652204       10.3551      -7.75244             0       10.3882     -0.259741             0       7.18363      0.404178             0       11.9094             0             0      0.186291   2.33946e-15       0.19004        102476        103135        286114   4.28633e-15
     0.019019       288.736       288.679      0.065072       10.9335       -7.9611             0       10.2555     -0.264632             0       6.32729      0.223699             0       12.1163             0             0      0.186313   2.33675e-15      0.189941        102475        103135        286018   4.28136e-15
    0.0195195       288.726       288.681     0.0648507       11.5709      -8.14747             0       10.1204     -0.269556             0       5.77339     0.0105234             0       12.2128             0             0      0.186402   2.33432e-15      0.189557        102476        103134        285872   4.27691e-15
      0.02002       288.715       288.682     0.0646058       12.2084      -8.33186             0       9.98538     -0.274498             0       5.23297     -0.203295             0       12.3047             0             0      0.186492   2.33193e-15      0.189164        102476        103134        285726   4.27253e-15
    0.0205205       288.708       288.685     0.0637924       12.8471      -8.46898             0       9.85385     -0.279888             0       5.01592     -0.432527             0       12.2898             0             0      0.186631   2.33055e-15       0.18856        102477        103134        285586   4.27001e-15
     0.021021       288.701       288.688     0.0629509       13.4848      -8.60383             0       9.72252     -0.285265             0        4.8111      -0.66135             0       12.2704             0             0      0.186769    2.3292e-15      0.187961        102478        103134        285448   4.26753e-15
    0.0215215       288.697       288.692     0.0614683       14.0967       -8.6872             0       9.59563     -0.290363             0        4.8854     -0.880814             0       12.1477             0             0      0.186881   2.32835e-15      0.187475        102480        103134        285335   4.26597e-15
     0.022022       288.694       288.696     0.0599732       14.7068      -8.76799             0        9.4688     -0.295365             0       4.96937      -1.09848             0       12.0201             0             0      0.186993   2.32748e-15      0.186987        102482        103135        285221   4.26438e-15
    0.0225225       288.692       288.701     0.0582059       15.2764      -8.79265             0       9.34335     -0.298278             0       5.26364      -1.27713             0        11.786             0             0       0.18711   2.32612e-15      0.186477        102485        103135        285091   4.26189e-15
     0.023023        288.69       288.705     0.0564507        15.843      -8.81436             0       9.21792     -0.301056             0       5.56531       -1.4531             0       11.5469             0             0      0.187228   2.32472e-15      0.185964        102488        103135        284959   4.25933e-15
    0.0235235       288.692        288.71     0.0549451       16.3454      -8.77479             0       9.09299     -0.301024             0       6.02037      -1.57337             0       11.2061             0             0      0.187361   2.32251e-15      0.185387        102492        103135        284805   4.25526e-15
     0.024024       288.694       288.714     0.0534695       16.8435      -8.73249             0       8.96823      -0.30087             0       6.48101      -1.69064             0        10.861             0             0      0.187495   2.32024e-15      0.184804        102496        103136        284651   4.25112e-15
    0.0245245       288.702       288.718     0.0525886       17.2543      -8.63627             0       8.84687     -0.298293             0       7.05235      -1.74835             0       10.4283             0             0      0.187654   2.31706e-15      0.184115        102501        103136        284514   4.24528e-15
     0.025025        288.71       288.722     0.0517227       17.6598        -8.538             0       8.72597      -0.29561             0       7.62645      -1.80295             0       9.99215             0             0       0.18782   2.31377e-15      0.183392        102506        103137        284375   4.23926e-15
    0.0255255       288.724       288.727     0.0511421       17.9654      -8.40079             0       8.61375     -0.290923             0       8.25314      -1.79848             0       9.48986             0             0      0.188132   2.30857e-15      0.182033        102511        103137        284204   4.22973e-15
     0.026026       288.739       288.732     0.0505462       18.2651      -8.26177             0       8.50228     -0.286141             0       8.87835      -1.79122             0       8.98561             0             0      0.188451   2.30326e-15      0.180648        102516        103138        284032      4.22e-15
    0.0265265       288.757       288.737     0.0496728        18.459      -8.08955             0       8.40443     -0.279638             0       9.47667      -1.73312             0       8.44555             0             0      0.188878   2.29602e-15      0.178791        102522        103138        283838   4.20674e-15
     0.027027       288.775       288.743     0.0487687       18.6464      -7.91494             0       8.30749     -0.273067             0       10.0698      -1.67297             0       7.90528             0             0      0.189299   2.28878e-15      0.176959        102527        103139        283642   4.19346e-15
    0.0275275       288.789        288.75     0.0473266       18.7188      -7.69827             0       8.22634     -0.265295             0       10.5721      -1.57695             0       7.36132             0             0      0.189621   2.28147e-15      0.175562        102532        103140        283421   4.18007e-15
     0.028028       288.801       288.758     0.0459109       18.7839      -7.47851             0       8.14619     -0.257465             0       11.0663      -1.47982             0       6.81873             0             0      0.189931   2.27424e-15      0.174214        102537        103140        283200   4.16683e-15
    0.0285285       288.809       288.766      0.044939       18.7256      -7.20655             0       8.08294     -0.248645             0       11.4248      -1.36408             0       6.29915             0             0      0.190052    2.2684e-15      0.173688        102542        103140        282973   4.15613e-15
     0.029029       288.816       288.774     0.0440454       18.6609      -6.93222             0       8.02079     -0.239732             0       11.7724      -1.24857             0       5.78224             0             0       0.19016   2.26268e-15      0.173217        102546        103141        282750   4.14566e-15
    0.0295295       288.825        288.78     0.0444232       18.4921      -6.61939             0       7.97653      -0.22931             0       11.9447      -1.13665             0       5.30871             0             0      0.190068   2.25897e-15      0.173618        102550        103141        282589   4.13885e-15
      0.03003       288.835       288.786     0.0448286        18.321      -6.30745             0       7.93334     -0.218788             0       12.1052      -1.02606             0       4.83877             0             0      0.189962   2.25549e-15       0.17408        102554        103142        282434   4.13248e-15
    0.0305305        288.85       288.788     0.0456656       18.1122      -6.00954             0       7.90685     -0.206698             0       12.0814     -0.936298             0       4.42515             0             0      0.189634   2.25568e-15      0.175506        102558        103142        282364   4.13282e-15
     0.031031       288.864        288.79     0.0464769       17.9062      -5.71611             0       7.88116     -0.194561             0       12.0485     -0.847887             0       4.01549             0             0      0.189297   2.25607e-15      0.176968        102561        103143        282295   4.13353e-15
    0.0315315       288.877       288.789     0.0468998        17.742      -5.49056             0       7.86744     -0.181718             0       11.8782     -0.779964             0       3.66576             0             0      0.188841   2.25941e-15      0.178954        102564        103143        282256   4.13966e-15
     0.032032        288.89       288.788     0.0472874       17.5813      -5.26859             0       7.85404     -0.168887             0       11.7046     -0.712693             0       3.31978             0             0      0.188385    2.2629e-15      0.180936        102566        103143        282221   4.14605e-15
    0.0325325       288.898       288.785     0.0471601       17.4716      -5.09899             0       7.84544     -0.156238             0        11.482     -0.654963             0       3.02875             0             0      0.187941   2.26848e-15      0.182863        102569        103144        282263   4.15628e-15
     0.033033       288.906       288.782      0.047002       17.3606      -4.92778             0       7.83676     -0.143636             0       11.2616     -0.597467             0       2.74097             0             0      0.187511   2.27396e-15      0.184735        102571        103144        282310   4.16632e-15
    0.0335335       288.908       288.777     0.0464077       17.2297      -4.73376             0       7.82693     -0.131699             0        11.071     -0.543279             0       2.49912             0             0      0.187261     2.278e-15      0.185824        102573        103144        282426   4.17373e-15
     0.034034        288.91       288.772      0.045777       17.0932       -4.5351             0        7.8169     -0.119828             0       10.8846     -0.489387             0       2.25993             0             0      0.187027   2.28198e-15      0.186838        102575        103145        282544   4.18101e-15
    0.0345345       288.905       288.766     0.0446482       16.8803      -4.27283             0       7.80411     -0.108854             0       10.7535     -0.439538             0       2.05728             0             0      0.187028   2.28503e-15      0.186834        102576        103145        282694   4.18659e-15
     0.035035         288.9       288.759     0.0434957       16.6624      -4.00757             0       7.79126     -0.097963             0       10.6249     -0.390107             0       1.85682             0             0      0.187041   2.28833e-15      0.186779        102578        103145        282848   4.19265e-15
    0.0355355       288.894       288.751     0.0420288       16.3791      -3.70268             0       7.77753    -0.0881789             0       10.5305     -0.346241             0       1.68537             0             0      0.187214   2.29509e-15      0.186027        102579        103145        283066   4.20504e-15
     0.036036       288.889       288.743     0.0405767       16.0945      -3.39902             0       7.76392    -0.0784851             0       10.4365     -0.302881             0       1.51579             0             0      0.187401   2.30225e-15      0.185212        102580        103146        283285   4.21815e-15
    0.0365365       288.895       288.734     0.0393159       15.7954       -3.1112             0       7.75185     -0.069954             0        10.349     -0.266033             0       1.37024             0             0      0.187774   2.31455e-15       0.18359        102581        103146        283513   4.24068e-15
     0.037037       288.904       288.725     0.0381079       15.5001      -2.82941             0       7.73997    -0.0615034             0       10.2611     -0.229681             0       1.22631             0             0      0.188157   2.32709e-15      0.181925        102583        103146        283741   4.26366e-15
    0.0375375        288.93       288.717     0.0375598       15.2529      -2.62306             0        7.7305    -0.0540615             0       10.1689     -0.199529             0       1.10264             0             0       0.18866   2.34263e-15      0.179738        102583        103146        283970   4.29214e-15
     0.038038       288.957        288.71     0.0370616        15.012      -2.42427             0       7.72117    -0.0466865             0       10.0765     -0.169741             0      0.980398             0             0      0.189154   2.35771e-15      0.177592        102584        103146        284201   4.31977e-15
    0.0385385       288.987       288.704     0.0371707       14.8466      -2.31728             0       7.71366    -0.0401254             0       9.98125     -0.144368             0      0.875494             0             0      0.189531   2.36707e-15      0.175952        102585        103146        284450   4.33692e-15
     0.039039       289.019       288.698     0.0372947       14.6834      -2.21367             0       7.70622    -0.0336145             0       9.88611     -0.119187             0      0.771837             0             0      0.189909   2.37515e-15      0.174308        102585        103146        284700   4.35171e-15
    0.0395395        289.07       288.694     0.0375945       14.5455      -2.14996             0       7.69949     -0.027697             0       9.79199    -0.0962845             0       0.68292             0             0      0.190298   2.36803e-15      0.172617        102586        103146        284961   4.33867e-15
      0.04004       289.121        288.69     0.0378804       14.4029      -2.08296             0       7.69275    -0.0218345             0       9.69829     -0.073582             0      0.595162             0             0       0.19073   2.35775e-15      0.170738        102586        103146        285224   4.31984e-15
    0.0405405       289.176       288.687     0.0380078       14.2058      -1.97804             0       7.68601    -0.0166062             0       9.60941    -0.0531813             0      0.520746             0             0      0.191656    2.3111e-15      0.166712        102586        103146        285514   4.23437e-15
     0.041041       289.227       288.684     0.0381092       13.9996      -1.86617             0       7.67925    -0.0114551             0       9.52116    -0.0331367             0      0.447455             0             0      0.192687   2.25851e-15      0.162229        102586        103146        285803     4.138e-15
    0.0415415       289.219       288.681     0.0379197       13.6924      -1.67653             0       7.67218   -0.00716831             0       9.43992    -0.0170778             0      0.386768             0             0      0.194895   2.13934e-15      0.152629        102586        103147        286089   3.91967e-15
     0.042042       289.204       288.678      0.037731       13.3785      -1.48349             0       7.66503   -0.00298367             0       9.35915   -0.00147894             0      0.327144             0             0      0.197304   2.00986e-15      0.142157        102586        103147        286373   3.68244e-15
    0.0425425       289.112       288.676     0.0375504       12.9902      -1.25321             0       7.65703   8.75994e-05             0       9.28352    0.00910365             0      0.279128             0             0      0.201899    1.7679e-15      0.122176        102586        103147        286625   3.23912e-15
     0.043043       289.018       288.674     0.0373871       12.6029      -1.02769             0       7.64884    0.00304676             0       9.20763     0.0192729             0      0.232043             0             0      0.206495   1.52524e-15      0.102197        102586        103147        286877   2.79452e-15
    0.0435435       288.915       288.673     0.0374076        12.226      -0.85278             0       7.63863    0.00481446             0       9.12896      0.025049             0      0.194864             0             0      0.211086   1.27511e-15     0.0822359        102586        103147        287136   2.33624e-15
     0.044044       288.814       288.672     0.0374404       11.8524     -0.685441             0       7.62795     0.0064799             0       9.04964     0.0305959             0      0.158451             0             0       0.21558   1.02823e-15     0.0626945        102586        103147        287392   1.88391e-15
    0.0445445       288.729       288.671      0.037601       11.5124     -0.596579             0       7.61244    0.00708562             0       8.96365     0.0337676             0      0.129985             0             0      0.219074    8.1498e-16     0.0475024        102586        103147        287627    1.4932e-15
     0.045045       288.646        288.67     0.0377622       11.1669     -0.509942             0       7.59565    0.00759173             0        8.8744     0.0368388             0      0.102159             0             0      0.222499   6.03926e-16     0.0326113        102586        103147        287857    1.1065e-15
    0.0455455       288.578        288.67     0.0379293       10.7659     -0.445796             0       7.56602    0.00709061             0       8.75214     0.0388942             0     0.0808119             0             0      0.225225   4.15068e-16     0.0207626        102586        103147        288037   7.60483e-16