#           y             T         TMean   TPrime2Mean           U_x           U_y           U_z       UMean_x       UMean_y       UMean_z UPrime2Mea... UPrime2Mea... UPrime2Mea... UPrime2Mea... UPrime2Mea... UPrime2Mea...            O2           H2O          C3H8             p         pMean   pPrime2Mean           CO2
  1.11022e-19       287.799       288.024     0.0844451       26.0905  -1.79325e-15             0        22.508  -3.73785e-16             0       10.5576  -1.44948e-17             0   1.02417e-16             0             0      0.229994   2.19068e-12   2.70658e-05        102173        103118        210615   4.01374e-12
  0.000500501       287.803       288.025      0.084591       26.0563      0.106719             0       22.5093     0.0142503             0       10.5789     -0.139416             0     0.0308801             0             0      0.229974   1.50191e-11   0.000113043        102173        103118        210538   2.75178e-11
     0.001001       287.808       288.026     0.0847584       26.0219      0.213466             0       22.5105        0.0285             0       10.6003     -0.278844             0     0.0618889             0             0      0.229954    2.8331e-11   0.000200865        102174        103118        210460   5.19078e-11
    0.0015015       287.922       288.037      0.095617       25.9257       0.33445             0       22.5139     0.0425013             0       10.6603     -0.423911             0      0.157158             0             0      0.229722   2.82896e-10    0.00120942        102175        103117        210312   5.18318e-10
     0.002002        288.04       288.049      0.108582        25.829      0.455524             0       22.5172     0.0564948             0       10.7206     -0.569042             0      0.252861             0             0      0.229486   5.46364e-10    0.00223572        102176        103117        210163   1.00104e-09
    0.0025025       289.345       288.129      0.646068       25.6419      0.598809             0       22.5238     0.0685316             0       10.8798     -0.730041             0      0.456691             0             0      0.228234   3.02686e-09    0.00767851        102177        103117        209984   5.54577e-09
     0.003003       290.682        288.21       1.21683       25.4543      0.742961             0       22.5305     0.0805651             0       11.0397     -0.891387             0      0.661806             0             0      0.226971   5.55867e-09     0.0131698        102178        103116        209804   1.01845e-08
    0.0035035       297.268        288.48       7.30078       25.1835       1.03064             0       22.5535     0.0920487             0       11.3155      -1.11021             0       1.07984             0             0       0.22386   1.65926e-08     0.0266955        102178        103116        209675   3.04007e-08
     0.004004       303.904       288.753       13.5137       24.9158       1.31991             0       22.5769      0.103504             0       11.5923      -1.33002             0       1.49999             0             0      0.220751   2.76693e-08     0.0402136        102177        103115        209548   5.06953e-08
    0.0045045       316.647       289.226       35.7266       25.0284       1.80698             0       22.6394      0.111434             0       11.9982      -1.67118             0       2.18095             0             0      0.217857   4.40562e-08     0.0527943        102175        103114        209539   8.07191e-08
   0.00500501       329.414         289.7       58.1788       25.1471       2.29514             0       22.7025      0.119397             0       12.4045       -2.0128             0       2.86227             0             0      0.214986   6.03749e-08     0.0652776        102173        103112        209531   1.10618e-07
   0.00550551       344.441       290.257       104.326        25.873       2.89106             0       22.8277      0.130659             0       12.8568      -2.40002             0       3.57994             0             0      0.214334   6.99414e-08     0.0681113        102169        103111        209561   1.28146e-07
   0.00600601       359.467       290.812       150.617       26.5995       3.48295             0       22.9517      0.141928             0       13.3074      -2.78743             0       4.29605             0             0      0.213691   7.94366e-08     0.0709099        102165        103110        209588   1.45543e-07
   0.00650651       374.319        291.32       208.718       27.3702       3.74278             0       22.9698      0.153827             0       13.6116      -3.19021             0       4.88396             0             0      0.213713   8.30589e-08     0.0708122        102164        103108        209488   1.52179e-07
   0.00700701       389.149       291.825       266.632        28.136       3.99374             0       22.9832      0.165788             0       13.9105      -3.58988             0       5.46958             0             0       0.21372   8.76825e-08      0.070782        102163        103107        209387   1.60651e-07
   0.00750751       402.453       292.174       311.351       28.5568       3.62056             0       22.6576      0.182037             0       13.8305      -3.76979             0       5.89445             0             0      0.212633   1.62818e-07     0.0755085        102166        103106        209173   2.98312e-07
   0.00800801       415.818       292.522       355.897       28.9712       3.24433             0       22.3233      0.198563             0       13.7415      -3.94341             0       6.31766             0             0      0.211499   2.45128e-07     0.0804357        102169        103104        208957    4.4912e-07
   0.00850851       432.855       292.754        389.83       28.9958       2.68005             0       21.4569      0.232087             0       13.0935      -3.72968             0       6.63854             0             0      0.207526   7.68703e-07     0.0977053        102173        103103        208607   1.40841e-06
   0.00900901       449.938       292.986       423.856       29.0179       2.11171             0       20.5821      0.265564             0       12.4376       -3.5104             0        6.9534             0             0      0.203488   1.31196e-06      0.115255        102176        103102        208253   2.40376e-06
   0.00950951       469.523       293.182       462.976        28.902       1.32133             0       19.2479      0.296454             0       11.3497        -2.988             0       6.94014             0             0      0.195928   2.92914e-06      0.148108        102175        103102        207684   5.36674e-06
      0.01001       488.957       293.377       502.161       28.7763      0.532197             0       17.9136      0.326666             0       10.2686      -2.46768             0       6.92092             0             0      0.188348   4.57137e-06      0.181049        102175        103102        207113    8.3756e-06
    0.0105105       500.997       293.516       544.516         28.17     -0.195823             0       16.5728      0.323704             0       9.52469      -2.04945             0       6.60984             0             0      0.179764   7.44077e-06      0.218343        102164        103102        206437   1.36329e-05
     0.011011       512.841       293.655       587.086       27.5443      -0.90761             0       15.2428      0.319542             0       8.80811      -1.64663             0       6.30594             0             0      0.171221   1.03204e-05      0.255457        102154        103102        205761    1.8909e-05
    0.0115115        515.91       293.772         639.2       26.0558     -0.897754             0       14.3962      0.262039             0       9.30655      -1.92951             0       6.32079             0             0      0.164513   1.36574e-05      0.284585        102153        103102        205093   2.50229e-05
     0.012012       518.884       293.889       691.351        24.558     -0.871315             0       13.5626      0.204622             0       9.83647      -2.22592             0       6.34806             0             0      0.157849   1.69451e-05      0.313525        102153        103102        204424   3.10466e-05
    0.0125125       518.012       293.966       745.031       22.6806     -0.170523             0       13.2538      0.150743             0       11.6469      -3.07323             0       6.88029             0             0      0.152942   1.82282e-05       0.33485        102157        103101        203724   3.33974e-05
     0.013013       517.245       294.039       797.756       20.8208       0.52344             0       12.9533     0.0966819             0       13.4897      -3.92521             0        7.4243             0             0      0.148043   1.94324e-05      0.356137        102160        103101        203022   3.56037e-05
    0.0135135       520.421       293.958       814.693       19.6162       0.96158             0       12.9646     0.0357768             0       16.5412      -4.95252             0        8.4095             0             0      0.143477   1.76818e-05      0.376003        102156        103099        202260   3.23964e-05
     0.014014       523.527       293.871       829.827       18.4281       1.38663             0       12.9835    -0.0248651             0       19.6072      -5.97831             0       9.40613             0             0      0.138861   1.59065e-05      0.396091        102151        103098        201498   2.91437e-05
    0.0145145        524.18       293.556       782.366       17.8108       1.35727             0       13.2661    -0.0763678             0       23.1742      -6.95138             0       10.7994             0             0      0.132483   1.32688e-05      0.423849        102148        103096        200730   2.43109e-05
     0.015015       524.615       293.238       734.322       17.2059        1.3303             0       13.5558     -0.127725             0       26.7307      -7.91722             0       12.2018             0             0      0.126013   1.06481e-05      0.452006        102145        103094        199964   1.95093e-05
    0.0155155       518.003       292.826       667.416       17.0024       1.38105             0       14.0749     -0.174385             0       29.9455      -8.64947             0       13.9025             0             0      0.116579   8.57545e-06      0.493047        102142        103091        199258   1.57118e-05
     0.016016        511.25       292.416       600.738       16.8179       1.43518             0       14.6018     -0.220309             0       33.1573      -9.36284             0       15.6081             0             0      0.107217   6.52117e-06      0.533773        102139        103088        198564    1.1948e-05
    0.0165165       500.256       292.062       540.993       17.2084        1.5917             0       15.3639     -0.243934             0       36.2741      -9.50455             0       17.4618             0             0      0.100047   5.02232e-06      0.564963        102135        103085        198213   9.20183e-06
     0.017017       489.029       291.707       480.648       17.5853       1.73643             0       16.1348     -0.265679             0       39.3932      -9.59866             0       19.3166             0             0     0.0931484    3.5387e-06       0.59497        102132        103081        197882   6.48357e-06
    0.0175175       471.225       291.351       403.282       17.5759       1.54647             0       17.1516     -0.233975             0       42.5771      -8.34023             0       21.2002             0             0     0.0939741   2.48783e-06      0.591391        102129        103077        198157   4.55818e-06
     0.018018       453.369       290.993       325.971       17.5479       1.35129             0       18.1632      -0.20078             0       45.7404       -7.0452             0       23.0848             0             0     0.0950429   1.45637e-06      0.586755        102126        103073        198456   2.66834e-06
    0.0185185        434.09       290.569        250.13       17.0212       1.01657             0       19.0331     -0.127655             0       48.3472       -4.7702             0       24.9972             0             0      0.102622   9.44533e-07      0.553808        102123        103068        199441   1.73056e-06
     0.019019       414.865       290.145       175.302        16.509      0.683843             0       19.8869    -0.0557469             0       50.8961      -2.50219             0       26.9114             0             0      0.110305   4.46156e-07       0.52041        102119        103064        200451   8.17441e-07
    0.0195195           397       289.715       126.146        16.365      0.401689             0       20.3337     -0.014635             0       51.9764      -0.41119             0       28.8739             0             0       0.12061   2.88544e-07      0.475605        102116        103059        202130   5.28667e-07
      0.02002       379.229       289.293       78.1248       16.2562      0.124185             0       20.7692     0.0254386             0       52.9693       1.65976             0       30.8473             0             0      0.130908   1.35582e-07      0.430834        102112        103054        203832   2.48411e-07
    0.0205205       363.731       289.041       57.3619       16.9933     -0.041707             0       20.9364     0.0405918             0       51.8629       3.24971             0       33.0838             0             0       0.14102   9.42099e-08      0.386869        102111        103049        206109    1.7261e-07
     0.021021       348.404       288.796       37.1613       17.7574     -0.195743             0       21.0947     0.0548511             0       50.6832       4.81807             0       35.3298             0             0      0.151105   5.39885e-08      0.343023        102109        103043        208397    9.8917e-08
    0.0215215       336.985       288.709       29.7847        19.139    -0.0793497             0       21.0489     0.0487223             0         47.83       5.89413             0        37.791             0             0      0.160557   4.00112e-08      0.301926        102110        103038        210957    7.3308e-08
     0.022022       325.718       288.623       22.5018       20.5206     0.0466018             0       20.9924     0.0412211             0       44.9454       6.95107             0       40.2568             0             0      0.169986   2.63583e-08       0.26093        102111        103033        213526   4.82934e-08
    0.0225225       317.758        288.56       17.2539        21.902      0.380222             0       20.7006    0.00390279             0       41.3803       7.59239             0       42.8227             0             0      0.178907   1.97539e-08      0.222144        102110        103027        216310   3.61928e-08
     0.023023       309.927       288.497       12.0688       23.2729      0.718028             0       20.3964    -0.0353349             0       37.8499       8.21503             0       45.3934             0             0      0.187767   1.32888e-08      0.183622        102108        103022        219109   2.43476e-08
    0.0235235       304.781       288.435       8.18523       24.4237       1.14262             0       19.8341     -0.114379             0       35.0386       8.44997             0       48.0638             0             0      0.195362   9.71436e-09      0.150601        102107        103016        222246   1.77985e-08
     0.024024        299.74       288.374       4.40743       25.5566       1.56385             0       19.2684     -0.195318             0       32.3154       8.68029             0       50.7413             0             0      0.202864   6.22202e-09      0.117982        102106        103011        225405   1.13999e-08
    0.0245245       296.783       288.338       2.72753       26.3357       1.91847             0       18.6366     -0.313856             0       31.3381       8.81886             0       53.5603             0             0      0.208529    4.3579e-09     0.0933521        102110        103005        228977   7.98449e-09
     0.025025       293.906       288.303       1.11044       27.0701       2.26382             0       18.0104     -0.433144             0       30.3952       8.97014             0       56.3875             0             0      0.214084   2.54265e-09     0.0692009        102114        103000        232570   4.65862e-09
    0.0255255       292.533        288.29      0.686821       26.9535       2.43311             0        17.492     -0.566687             0       30.1049       9.36319             0       59.3699             0             0      0.217547   1.65607e-09     0.0541442        102119        102994        236558   3.03422e-09
     0.026026       291.195       288.278      0.281489       26.7821       2.59425             0       16.9747     -0.700897             0       29.7868       9.75628             0        62.352             0             0      0.220914   7.99653e-10     0.0395053        102125        102989        240558   1.46511e-09
    0.0265265       290.495       288.275      0.209473       25.6125       2.60672             0       16.4787     -0.847284             0       28.9618         10.15             0       65.3282             0             0      0.222529   4.93397e-10     0.0324808        102131        102982        244773   9.03995e-10
     0.027027       289.809       288.272      0.140762       24.4058       2.59981             0       15.9768     -0.994859             0       28.1195       10.5281             0       68.2975             0             0      0.224076   1.99727e-10     0.0257565        102137        102976        248993   3.65937e-10
    0.0275275       289.361       288.273      0.129944       22.5487       2.25333             0       15.3724      -1.16324             0       26.9749       10.6324             0       71.1445             0             0      0.224413    1.2655e-10     0.0242902        102141        102968        253282   2.31864e-10
     0.028028       288.919       288.275      0.119653       20.6957       1.88817             0       14.7622      -1.33277             0       25.8384       10.7229             0       73.9736             0             0      0.224606   5.63915e-11     0.0234539        102146        102961        257562    1.0332e-10
    0.0285285       288.561       288.277      0.118235       18.9135       1.20814             0       14.0553      -1.52171             0       24.8394       10.5808             0       76.4994             0             0      0.222355   3.71057e-11     0.0332376        102147        102954        261676   6.79846e-11
     0.029029       288.212       288.279      0.116956       17.1751      0.509634             0       13.3428      -1.71133             0       23.8711       10.4331             0        78.994             0             0      0.219963   1.85043e-11     0.0436389        102148        102946        265750   3.39033e-11
    0.0295295       287.993       288.278      0.117934       16.1475     -0.489047             0       12.5387       -1.9119             0       23.4016       10.1956             0       80.9814             0             0      0.215264   1.10171e-11     0.0640694        102145        102939        269191   2.01853e-11
      0.03003       287.784       288.277      0.118928       15.1476      -1.49653             0       11.7297      -2.11274             0       22.9787       9.96643             0       82.9237             0             0      0.210703   3.87048e-12     0.0839008        102142        102932        272567   7.09144e-12
    0.0305305       287.726       288.275      0.120181       14.5811      -2.64183             0       10.8421      -2.31774             0       23.2865       9.86923             0       84.1597             0             0        0.2083   2.06049e-12      0.094346        102134        102925        274933   3.77521e-12
     0.031031        287.67       288.272      0.121376       13.9859      -3.77237             0       9.95033      -2.52211             0       23.6462       9.78962             0        85.346             0             0      0.206146   3.52323e-13      0.103714        102125        102918        277227   6.45522e-13
    0.0315315       287.643        288.27      0.121675       12.9561      -4.67958             0        8.9966      -2.71687             0       24.7902       9.97613             0       85.7803             0             0      0.207741   1.84591e-13     0.0967779        102112        102913        278422   3.38204e-13
     0.032032       287.618       288.268      0.121934       11.8939       -5.5752             0       8.04092      -2.91086             0       25.9683       10.1746             0       86.1723             0             0      0.209417   2.67572e-14     0.0894935        102099        102907        279555   4.90242e-14
    0.0325325       287.621       288.266      0.121607       10.3601      -6.30139             0       7.05674      -3.09365             0       27.6457       10.5474             0       85.9478             0             0      0.212265   1.37017e-14     0.0771084        102084        102903        279788   2.51041e-14
     0.033033       287.627       288.263      0.121275       8.81543      -7.01489             0       6.07251      -3.27539             0       29.3069       10.9193             0       85.6907             0             0      0.215063   1.48019e-15     0.0649428        102069        102899        279991   2.71199e-15
    0.0335335       287.664       288.262      0.120879       7.11698      -7.54886             0       5.08776       -3.4422             0       30.7386       11.2774             0       84.9717             0             0      0.217147   1.05973e-15     0.0558839        102055        102896        279766   1.94163e-15
     0.034034       287.701       288.261      0.120503       5.42367      -8.07472             0       4.10354      -3.60782             0       32.1028       11.6174             0       84.2221             0             0      0.219138   6.66977e-16     0.0472276        102041        102893        279536   1.22203e-15
    0.0345345       287.733       288.261      0.120408       3.80064      -8.48937             0        3.1266      -3.75712             0       32.5417       11.7094             0       83.0541             0             0       0.21986   6.53899e-16     0.0440869        102028        102891        279238   1.19807e-15
     0.035035       287.763       288.262      0.120362       2.19334      -8.89773             0        2.1499       -3.9054             0       32.8976       11.7691             0       81.8518             0             0      0.220534   6.41521e-16     0.0411577        102015        102889        278941   1.17539e-15
    0.0355355       287.772       288.264      0.120961      0.794875      -9.22246             0       1.17623      -4.04024             0       32.1513       11.3998             0       80.1951             0             0      0.220562   6.38445e-16     0.0410364        102005        102889        278669   1.16975e-15
     0.036036       287.781       288.266      0.121624     -0.592225      -9.54086             0        0.2024      -4.17423             0       31.3628        10.998             0       78.4984             0             0      0.220584   6.35485e-16     0.0409398        101995        102889        278386   1.16433e-15
    0.0365365       287.779       288.268      0.123111      -1.83287      -9.77765             0      -0.77347      -4.29713             0       30.0306       10.1773             0        76.288             0             0      0.220533   6.34031e-16     0.0411621        101986        102890        277974   1.16166e-15
     0.037037       287.776        288.27      0.124684      -3.06398      -10.0095             0      -1.74919      -4.41847             0       28.7246       9.34577             0       74.0383             0             0      0.220477   6.32687e-16     0.0414063        101978        102891        277531    1.1592e-15
    0.0375375       287.768       288.271      0.127337      -4.17571      -10.1793             0      -2.72299      -4.52014             0       27.7445       8.38044             0        71.297             0             0      0.220357   6.32714e-16     0.0419241        101973        102895        276702   1.15925e-15
     0.038038        287.76       288.273      0.130067      -5.27952      -10.3449             0      -3.69506      -4.61922             0       26.8424       7.43878             0       68.5236             0             0      0.220231   6.32901e-16     0.0424735        101967        102898        275828   1.15959e-15
    0.0385385       287.746       288.272      0.133728      -6.28706      -10.4599             0      -4.64614      -4.68686             0       26.8895       6.78488             0       65.3598             0             0      0.220017   6.35025e-16      0.043406        101963        102903        274407   1.16348e-15
     0.039039       287.732       288.272      0.137471      -7.28717      -10.5708             0      -5.59235      -4.75102             0       27.0344       6.18116             0       62.1769             0             0      0.219797   6.37389e-16      0.044362        101959        102909        272942   1.16782e-15
    0.0395395       287.716       288.269      0.142172      -8.19944      -10.6318             0      -6.48092      -4.77397             0       28.3362       6.17072             0       58.7681             0             0      0.219513   6.42596e-16     0.0455948        101957        102916        270964   1.17736e-15
      0.04004       287.699       288.267      0.146806      -9.10268      -10.6884             0      -7.36041      -4.79287             0       29.7273       6.21457             0       55.3517             0             0      0.219218   6.48011e-16     0.0468801        101956        102924        268953   1.18728e-15
    0.0405405       287.677       288.263      0.150654      -9.90216      -10.6946             0      -8.13527      -4.76524             0       32.1439       6.88281             0       51.8475             0             0      0.218783   6.55822e-16     0.0487695        101956        102932        266555   1.20159e-15
     0.041041       287.654        288.26      0.154239      -10.6886      -10.6942             0      -8.89709       -4.7331             0       34.6132       7.58733             0       48.3418             0             0      0.218312   6.63802e-16     0.0508169        101957        102941        264141   1.21621e-15
    0.0415415       287.618       288.259      0.154887      -11.3295      -10.6194             0      -9.51292      -4.65043             0       37.6709       8.69799             0       44.8188             0             0      0.217434    6.7369e-16     0.0546328        101959        102951        261541   1.23433e-15
     0.042042        287.58       288.259       0.15548      -11.9511      -10.5358             0      -10.1135      -4.56303             0       40.7324       9.81645             0       41.3007             0             0      0.216468   6.83763e-16      0.058833        101962        102961        258945   1.25278e-15
    0.0425425       287.528        288.26      0.155489      -12.3631       -10.356             0      -10.5481      -4.42419             0       43.8345       11.0199             0       37.8369             0             0      0.214538   6.95853e-16     0.0672255        101967        102971        256382   1.27493e-15
     0.043043       287.477       288.261      0.155576      -12.7513      -10.1665             0      -10.9673      -4.28021             0       46.9268       12.2041             0        34.387             0             0      0.212449   7.08096e-16     0.0763078        101972        102980        253838   1.29736e-15
    0.0435435       287.431       288.261      0.156506      -12.8871      -9.87423             0      -11.2235      -4.08156             0       49.9149       13.1832             0       31.0847             0             0      0.208674   7.21972e-16     0.0927211        101979        102990        251498   1.32279e-15
     0.044044       287.389       288.261      0.157257      -12.9998      -9.57375             0      -11.4647      -3.87828             0       52.9359        14.133             0       27.8022             0             0      0.204815   7.35661e-16      0.109499        101986        102999        249195   1.34787e-15
    0.0445445        287.39       288.258      0.156153      -12.8732      -9.18852             0      -11.5512        -3.627             0       56.2975       14.7802             0       24.7254             0             0      0.200086   7.47415e-16      0.130061        101994        103008        247284    1.3694e-15
     0.045045       287.395       288.255      0.154911      -12.7223      -8.79094             0      -11.6237      -3.37205             0       59.7695       15.3901             0       21.6658             0             0      0.195439   7.58805e-16      0.150266        102002        103016        245417   1.39027e-15
    0.0455455       287.441       288.249      0.152261      -12.3255      -8.26858             0      -11.5548      -3.07983             0       64.3574        15.624             0       18.7803             0             0      0.191619   7.66503e-16      0.166874        102011        103024        243999   1.40438e-15