#           y             T         TMean   TPrime2Mean           U_x           U_y           U_z       UMean_x       UMean_y       UMean_z UPrime2Mea... UPrime2Mea... UPrime2Mea... UPrime2Mea... UPrime2Mea... UPrime2Mea...            O2           H2O          C3H8             p         pMean   pPrime2Mean           CO2
            0       287.795       288.013     0.0613878       28.1152             0             0        22.661             0             0       5.77081             0             0             0             0             0          0.23   6.27544e-21   6.71961e-09        102384        103138        263038   1.14978e-20
  0.000500501       287.795       288.013     0.0613984         28.14      0.110534             0       22.6633    0.00556868             0       5.78811      0.134703             0     0.0460666             0             0          0.23   3.93284e-20   3.81456e-08        102384        103138        262605   7.20569e-20
     0.001001       287.795       288.013     0.0614087       28.1649      0.221069             0       22.6655     0.0111446             0       5.80557      0.269412             0     0.0922377             0             0          0.23   7.42029e-20   7.04905e-08        102384        103137        262171   1.35954e-19
    0.0015015       287.796       288.013     0.0612817        28.198      0.332219             0       22.6614     0.0203242             0       5.89966      0.407037             0      0.190563             0             0          0.23   1.01803e-18   5.61398e-07        102385        103138        260920   1.86522e-18
     0.002002       287.797       288.013     0.0611543       28.2313      0.443531             0       22.6573     0.0294835             0       5.99405      0.544805             0      0.289385             0             0          0.23   2.06713e-18   1.07744e-06        102386        103138        259666   3.78736e-18
    0.0025025       287.798       288.013      0.060952        28.319      0.595446             0       22.6585     0.0335933             0       6.16432      0.718116             0      0.511751             0             0      0.229998   2.93279e-17   7.85207e-06        102386        103138        257771   5.37341e-17
     0.003003       287.799       288.013     0.0607501       28.4068      0.747379             0       22.6596     0.0377843             0       6.33614      0.891441             0      0.734865             0             0      0.229997   5.87302e-17    1.5142e-05        102386        103138        255873   1.07605e-16
    0.0035035       287.802       288.014     0.0606207       28.5158      0.902499             0       22.6496     0.0554396             0       6.76514       1.06693             0        1.0819             0             0      0.229975   4.42927e-16   0.000107797        102387        103137        253371   8.11525e-16
     0.004004       287.805       288.015     0.0607413       28.6252       1.05868             0       22.6397     0.0730014             0       7.19671       1.24386             0       1.43293             0             0      0.229952   9.31807e-16   0.000206791        102387        103137        250867   1.70724e-15
    0.0045045       287.821       288.033     0.0918479       28.7939       1.34649             0       22.6434     0.0789684             0        7.9469       1.60015             0        2.2785             0             0      0.229749   1.44013e-14    0.00109177        102384        103136        248075   2.63859e-14
   0.00500501       287.838       288.051      0.134413       28.9632       1.63451             0       22.6466     0.0851796             0        8.7059        1.9557             0        3.1317             0             0      0.229533   3.43527e-14     0.0020301        102382        103135        245282   6.29406e-14
   0.00550551       287.945       288.169       1.31137       29.1959       1.94412             0       22.6048      0.115575             0       10.3368       2.23728             0       4.74092             0             0      0.228103   6.96013e-13    0.00824922        102376        103134        242456   1.27522e-12
   0.00600601       288.059       288.291        2.6354       29.4264       2.25715             0       22.5632      0.145355             0       11.9638       2.52612             0       6.37984             0             0      0.226626   1.76284e-12     0.0146702        102370        103132        239638   3.22984e-12
   0.00650651       288.693       288.692       16.0673       29.4778         2.852             0       22.5298      0.124376             0       13.2749        3.4126             0       10.4648             0             0      0.221327   3.61881e-11     0.0377078        102359        103128        237363   6.63033e-11
   0.00700701        289.38       289.102       30.4603       29.5211       3.44345             0       22.4967       0.10434             0       14.5571       4.29354             0       14.5707             0             0      0.215963   8.70734e-11     0.0610307        102348        103123        235094   1.59535e-10
   0.00750751       293.777       290.093       112.542       28.9969       3.79567             0       22.4874      0.150771             0       13.7993       4.78486             0       20.1444             0             0      0.205976   1.29722e-09      0.104451        102337        103117        233165   2.37675e-09
   0.00800801       298.937       291.119       202.715       28.4644       4.14747             0       22.4677      0.195475             0       13.0289        5.2359             0       25.7283             0             0      0.196003   2.88071e-09      0.147814        102325        103111        231233     5.278e-09
   0.00850851       350.967       294.256       790.476       27.4207       4.47454             0       21.8089      0.133943             0       11.4817       3.20925             0       31.9417             0             0      0.186843   2.74252e-08      0.187639        102308        103103        229105   5.02482e-08
   0.00900901       403.333       297.389       1379.48       26.3781       4.81773             0       21.1489       0.07295             0       9.93887       1.16921             0       38.1148             0             0      0.177771   6.18691e-08      0.227084        102292        103095        226953   1.13356e-07
   0.00950951       474.063       300.301       2036.51       25.3945       6.04077             0       20.4272       0.04129             0       8.63168      -1.60193             0       42.0884             0             0      0.173466   6.36379e-07      0.245794        102280        103091        223503   1.16596e-06
      0.01001       544.148       303.171       2686.09       24.4056       7.25188             0       19.6996     0.0130518             0       7.35299      -4.34027             0       45.9564             0             0      0.169243   1.28531e-06      0.264147        102268        103087        220030   2.35494e-06
    0.0105105       582.651       304.008       2970.95        23.155       7.87839             0       18.6813      0.152481             0       7.47134      -5.47154             0        44.652             0             0      0.169035   5.58115e-06      0.265007        102267        103092        215382   1.02257e-05
     0.011011        620.89       304.838       3254.79       21.9094        8.4853             0       17.6478      0.290961             0       7.61586      -6.56684             0        43.265             0             0      0.168835   1.01101e-05      0.265831        102265        103098        210724   1.85236e-05
    0.0115115       647.384       305.356       3493.23       20.8833       8.22163             0       15.9334      0.387238             0       8.92362      -6.06331             0       38.2065             0             0      0.168979   2.50031e-05       0.26505        102269        103106        205599   4.58104e-05
     0.012012       673.665       305.876       3732.29       19.8505       7.95064             0       14.2209      0.481295             0       10.2031      -5.53618             0         33.11             0             0      0.169008   4.01516e-05       0.26477        102273        103115        200486   7.35652e-05
    0.0125125       691.277       306.408        3996.8       18.5485       7.38192             0       12.5819      0.485119             0       10.3328      -4.04934             0       26.4692             0             0      0.164325   6.56895e-05      0.284868        102275        103122        195866   0.000120355
     0.013013       708.098       306.921       4252.45       17.2585       6.80313             0       10.9676      0.486777             0       10.4299      -2.57084             0       19.8999             0             0      0.159379   9.03319e-05      0.306119        102277        103130        191281   0.000165505
    0.0135135       695.332       306.755       4175.91       16.4201       5.84688             0       10.2778      0.407286             0       9.30333      -1.40467             0       16.0065             0             0      0.144579   8.14314e-05      0.370561        102279        103133        188022   0.000149197
     0.014014       681.689       306.558       4086.69       15.6002       4.90643             0       9.61335      0.330454             0       8.17982     -0.265136             0        12.174             0             0      0.129472   7.19569e-05      0.436342        102280        103136        184788   0.000131838
    0.0145145       637.646       305.326       3557.17       15.4218       4.51407             0       9.83239      0.345952             0       7.16194    -0.0502716             0       10.4524             0             0      0.103726   4.25581e-05      0.548579        102281        103138        182420   7.79743e-05
     0.015015       593.959       304.102       3031.69       15.2532       4.11944             0       10.0494       0.36033             0       6.17598       0.16137             0       8.76583             0             0     0.0783123   1.38449e-05       0.65937        102283        103139        180080   2.53664e-05
    0.0155155         561.8       303.148       2636.79       15.4048        3.6512             0       10.2016       0.33848             0       6.22219      0.268803             0       8.21442             0             0     0.0636038   7.30234e-06      0.723387        102280        103139        178642   1.33793e-05
     0.016016       529.284        302.16       2239.07         15.55       3.17266             0       10.3694       0.31414             0       6.32855      0.343493             0           7.7             0             0      0.049769   9.54501e-07      0.783603        102277        103139        177223   1.74882e-06
    0.0165165       485.952       300.156       1756.39       15.5003       2.38294             0       11.0112      0.214471             0       8.25432     -0.572304             0       8.30428             0             0     0.0623642   4.96239e-07      0.728846        102274        103138        176351   9.09203e-07
     0.017017       442.276       298.122       1273.41       15.4987        1.6031             0       11.7167      0.109967             0       10.2007       -1.5099             0       8.89856             0             0     0.0756399   5.26868e-08       0.67113        102271        103137        175481    9.6532e-08
    0.0175175       388.853       295.242        782.17       16.8653       1.10431             0       14.2324     -0.131914             0       12.7326      -3.06695             0       9.20867             0             0      0.108249   2.70397e-08      0.529352        102267        103137        174656   4.95418e-08
     0.018018       336.601        292.41       303.669       18.2751      0.625936             0        16.746     -0.365371             0       15.2063      -4.58462             0       9.52426             0             0       0.14072   2.27528e-09      0.388176        102263        103137        173832   4.16874e-09
    0.0185185       315.725       290.848       166.338       20.8399      0.694486             0       19.2001     -0.373236             0       16.1224      -5.04776             0       9.98694             0             0      0.169485   1.14493e-09      0.263107        102261        103136        173016   2.09773e-09
     0.019019       295.514       289.325       33.6167       23.3198      0.760989             0       21.5897     -0.378699             0       16.9896      -5.48039             0       10.4301             0             0      0.197603    5.6482e-11      0.140858        102260        103135        172232   1.03486e-10
    0.0195195       292.178       288.805       17.6244       23.6528       0.77566             0       22.3482     -0.323353             0       16.6193       -5.1405             0       10.3798             0             0      0.209301   2.87065e-11     0.0899968        102259        103136        172267   5.25957e-11
      0.02002       288.953       288.301       2.22946       23.9782       0.77667             0       23.0884     -0.269516             0        16.245      -4.80013             0        10.323             0             0      0.220685   2.00275e-12      0.040498        102258        103136        172320   3.66941e-12
    0.0205205       288.403       288.173        1.1722       24.1231      0.449829             0       23.3916     -0.251876             0       15.7719      -4.44835             0       10.1084             0             0      0.224551   1.01965e-12     0.0236912        102259        103136        172793   1.86819e-12
     0.021021       287.874       288.049      0.157178       24.2666      0.127556             0        23.679     -0.230406             0       15.3084      -4.08291             0         9.937             0             0      0.228284   7.62414e-14     0.0074623        102259        103135        173265   1.39688e-13
    0.0215215        287.82       288.029      0.105741       24.3783    -0.0905521             0       23.6076     -0.121575             0       15.0664      -3.40572             0       10.7498             0             0      0.228985   3.81703e-14    0.00441366        102260        103134        173702    6.9935e-14
     0.022022       287.769        288.01     0.0563936       24.4623     -0.319512             0       23.5131    -0.0123587             0       14.8467      -2.68052             0       11.5946             0             0      0.229642   1.73773e-15    0.00155753        102262        103132        174150   3.18384e-15
    0.0225225       287.788       288.028     0.0524685       23.9439     -0.784257             0       22.9184      0.105241             0       15.1121      -0.91227             0       13.1333             0             0      0.229337   9.07063e-16    0.00288407        102263        103129        174827   1.66191e-15
     0.023023       287.808       288.046      0.048661       23.3636      -1.23527             0       22.2722      0.229268             0        15.478      0.918291             0       14.6829             0             0      0.228977   1.23481e-16    0.00444709        102264        103126        175501   2.26239e-16
    0.0235235       287.851       288.088     0.0472917       21.5009      -1.40148             0       20.5566      0.486586             0       17.9257       4.04112             0       16.4553             0             0       0.22749   3.16293e-16     0.0109147        102269        103121        176108   5.79509e-16
     0.024024       287.896       288.131     0.0462443       19.5474      -1.56908             0       18.7751      0.737669             0        20.665       7.09665             0        18.273             0             0      0.225943   5.49822e-16     0.0176384        102272        103117        176733   1.00738e-15
    0.0245245       287.949       288.187     0.0515819        15.792      -1.76435             0       15.6858      0.865088             0       29.1855       8.81741             0       20.9905             0             0      0.223229   1.59087e-15     0.0294411        102274        103112        177723   2.91476e-15
     0.025025       288.001       288.243     0.0571782       12.0658       -1.9887             0       12.6048       0.97751             0       37.9631       10.3494             0       23.7715             0             0       0.22057   2.72244e-15     0.0409999        102274        103106        178698   4.98803e-15
    0.0255255       288.026       288.292     0.0676904       8.89299      -2.76548             0        9.6813       0.80498             0        51.626       8.29529             0        27.759             0             0      0.218977   5.57414e-15     0.0479248        102269        103100        179420   1.02129e-14
     0.026026        288.05       288.339     0.0780862       5.74266       -3.5307             0       6.81607      0.625799             0       65.0471        6.1807             0       31.7404             0             0      0.217472   8.55661e-15     0.0544684        102264        103093        180129   1.56773e-14
    0.0265265       288.042       288.366     0.0863608       3.00217      -4.08531             0       5.01252      0.325362             0       74.0603       2.96373             0        35.612             0             0      0.217566   1.39232e-14      0.054062        102256        103085        180592     2.551e-14
     0.027027       288.034       288.393     0.0943654      0.270541      -4.62291             0       3.24315      0.020883             0         82.53     -0.237858             0       39.4339             0             0      0.217656   1.92943e-14     0.0536711        102247        103077        181067   3.53508e-14
    0.0275275       288.021       288.411     0.0976394      -2.30577      -4.86257             0       2.07265     -0.354407             0       81.4778      -3.16987             0       42.3869             0             0      0.217684   2.47438e-14     0.0535493        102235        103070        181743   4.53352e-14
     0.028028       288.007       288.428      0.100761      -4.79809       -5.0979             0      0.921566     -0.730643             0       80.0858      -6.07902             0       45.2468             0             0      0.217678   2.99242e-14     0.0535754        102222        103062        182437   5.48268e-14
    0.0285285       287.987        288.44      0.101306      -5.87467      -5.26045             0     0.0977891      -1.12281             0       72.9636      -8.60267             0       46.5366             0             0      0.217098   3.05698e-14     0.0560938        102208        103056        183436   5.60096e-14
     0.029029       287.966       288.451      0.101776      -6.88303      -5.41087             0     -0.717235       -1.5123             0       65.7241      -11.0429             0       47.7299             0             0      0.216524   3.09365e-14     0.0585922        102194        103050        184459   5.66814e-14
    0.0295295       287.949       288.459      0.101029      -6.78344      -5.36422             0       -1.3901      -1.85817             0       56.5806      -12.1284             0       47.3565             0             0      0.216024   2.67725e-14     0.0607669        102182        103045        185880   4.90522e-14
      0.03003       287.932       288.466      0.100245      -6.66294      -5.31101             0      -2.05525      -2.20025             0       47.4903      -13.1143             0       46.9143             0             0      0.215555   2.24946e-14      0.062806        102170        103040        187321   4.12142e-14
    0.0305305       287.932       288.471     0.0988916      -6.21472       -5.1549             0      -2.59955      -2.48302             0       39.2329      -12.5416             0       45.3931             0             0      0.215574   1.64306e-14     0.0627214        102162        103038        189057   3.01039e-14
     0.031031       287.933       288.476     0.0975762      -5.79472      -4.99471             0      -3.13593      -2.76005             0       31.2106      -11.8887             0       43.8257             0             0       0.21561   1.04949e-14     0.0625643        102154        103036        190813   1.92286e-14
    0.0315315       287.949       288.479     0.0968425      -5.80159        -4.773             0      -3.55235      -2.95028             0       26.7452      -10.0236             0       41.5597             0             0      0.215898   6.50074e-15     0.0613114        102147        103036        192860   1.19106e-14
     0.032032       287.966       288.482     0.0961733      -5.82881      -4.54597             0       -3.9579      -3.13523             0       22.5366      -8.13971             0       39.2721             0             0      0.216193   2.71605e-15     0.0600302        102141        103037        194934    4.9763e-15
    0.0325325       287.993       288.483     0.0964457       -6.1535      -4.24123             0      -4.20446      -3.24278             0       22.0825      -5.98157             0       36.6687             0             0      0.216583   1.99478e-15     0.0583338        102134        103040        197415   3.65481e-15
     0.033033        288.02       288.484     0.0967434      -6.45948      -3.93441             0      -4.43927      -3.34559             0       21.7618      -3.85221             0       34.0599             0             0       0.21697   1.31689e-15     0.0566525        102128        103043        199951   2.41279e-15
    0.0335335       288.045       288.484     0.0973991      -6.50069      -3.59809             0      -4.50782      -3.38136             0       23.3279      -2.13015             0       31.3749             0             0      0.217308   1.25287e-15     0.0551846        102120        103047        203260    2.2955e-15
     0.034034        288.07       288.483     0.0980153        -6.523      -3.26502             0      -4.56589      -3.41415             0       24.8963     -0.444396             0       28.7034             0             0      0.217638   1.19216e-15     0.0537472        102113        103051        206608   2.18427e-15
    0.0345345       288.078       288.484     0.0980901      -6.28629      -2.97643             0      -4.48033      -3.40604             0       26.4966      0.743897             0       26.2188             0             0      0.217873   1.17681e-15      0.052727        102105        103056        210486   2.15613e-15
     0.035035       288.085       288.485     0.0980535      -6.04833      -2.68868             0      -4.38772      -3.39523             0       28.0263       1.89789             0       23.7535             0             0      0.218104   1.16135e-15     0.0517216        102098        103060        214379    2.1278e-15
    0.0355355       288.077       288.489     0.0965365       -5.7939       -2.4121             0      -4.20146      -3.34851             0       28.6185       2.59624             0       21.5455             0             0       0.21829    1.1445e-15     0.0509125        102090        103064        218477   2.09693e-15
     0.036036       288.068       288.493     0.0948869      -5.53713       -2.1334             0      -4.00967      -3.29891             0        29.106       3.25063             0       19.3594             0             0      0.218474   1.12811e-15     0.0501134        102083        103068        222555    2.0669e-15
    0.0365365       288.055       288.501     0.0915287      -5.25014      -1.82733             0      -3.74659      -3.21214             0       28.2459       3.33839             0       17.4559             0             0      0.218628    1.1176e-15     0.0494444        102076        103071        226367   2.04766e-15
     0.037037       288.041       288.508     0.0881799      -4.95805      -1.52164             0      -3.47978       -3.1221             0       27.2995       3.38682             0        15.581             0             0      0.218782   1.10769e-15     0.0487733        102069        103074        230145    2.0295e-15
    0.0375375       288.026       288.517     0.0849497       -4.6022      -1.22078             0      -3.16633      -2.99125             0       25.2736       2.94308             0       14.0647             0             0      0.218943   1.10521e-15     0.0480747        102063        103076        233493   2.02495e-15
     0.038038        288.01       288.526     0.0818109       -4.2396     -0.921186             0      -2.85019      -2.85813             0       23.2357       2.48767             0       12.5806             0             0      0.219108   1.10314e-15     0.0473566        102056        103078        236798   2.02116e-15
    0.0385385        287.99       288.534     0.0797831      -3.79499      -0.63697             0      -2.50144      -2.69745             0       21.0496       1.89046             0       11.4886             0             0      0.219328   1.10606e-15     0.0464017        102051        103080        239579    2.0265e-15
     0.039039       287.971       288.542     0.0778421      -3.34482     -0.355975             0      -2.15159      -2.53564             0       18.9107       1.30114             0       10.4219             0             0      0.219547   1.10933e-15     0.0454489        102046        103081        242324   2.03251e-15
    0.0395395       287.956       288.548     0.0769275      -2.82888     -0.113058             0      -1.78883      -2.36059             0       17.3284      0.805076             0        9.6541             0             0       0.21976   1.11688e-15     0.0445199        102041        103082        244627   2.04634e-15
      0.04004       287.942       288.554     0.0761218       -2.3052      0.126308             0       -1.4251       -2.1856             0       15.7958      0.318093             0       8.89732             0             0      0.219975   1.12483e-15     0.0435863        102037        103083        246892    2.0609e-15
    0.0405405       287.935       288.557     0.0765691      -1.69261      0.324833             0      -1.05017      -2.01132             0        14.835    -0.0643983             0       8.26762             0             0      0.220202   1.13742e-15     0.0425991        102033        103084        248708   2.08397e-15
     0.041041       287.928        288.56     0.0770583      -1.07397      0.518894             0     -0.673503      -1.83747             0       13.8939     -0.437723             0        7.6412             0             0      0.220424    1.1499e-15     0.0416367        102029        103084        250493   2.10684e-15
    0.0415415       287.929       288.564     0.0780172     -0.387452      0.662965             0     -0.277315      -1.66833             0       13.1735     -0.708422             0       7.05144             0             0      0.220581   1.16121e-15      0.040953        102026        103086        251926   2.12755e-15
     0.042042       287.931       288.567     0.0789684      0.306363      0.800216             0      0.120384       -1.5001             0       12.4729     -0.964944             0       6.46126             0             0      0.220725   1.17197e-15      0.040328        102023        103087        253324   2.14728e-15
    0.0425425        287.94       288.572     0.0798356        1.0798      0.863092             0      0.534557      -1.34171             0       11.9893      -1.06687             0       5.86645             0             0      0.220721   1.17686e-15     0.0403438        102021        103088        254337   2.15622e-15
     0.043043       287.948       288.576     0.0806932       1.85925      0.920365             0       0.94794      -1.18457             0       11.5561      -1.15529             0       5.27299             0             0      0.220709   1.18157e-15     0.0403943        102018        103090        255319   2.16485e-15
    0.0435435       287.957       288.579     0.0814492       2.70259      0.918094             0       1.35292      -1.04066             0       11.6585      -1.10022             0       4.69386             0             0      0.220613   1.18445e-15     0.0408147        102017        103091        255961   2.17013e-15
     0.044044       287.965       288.582     0.0821411       3.55402      0.907298             0       1.75591     -0.898225             0       11.8167      -1.03579             0       4.11988             0             0      0.220513   1.18723e-15     0.0412463        102015        103093        256577   2.17522e-15
    0.0445445       287.968       288.585     0.0821693       4.48923      0.808149             0       2.13828     -0.771155             0       12.5542     -0.874464             0       3.59927             0             0      0.220388   1.18894e-15     0.0417928        102016        103095        256925   2.17836e-15
     0.045045       287.972       288.587     0.0820252       5.43185      0.701555             0        2.5158     -0.646239             0       13.3264     -0.710958             0       3.08453             0             0      0.220258   1.19045e-15      0.042358        102016        103097        257261   2.18112e-15
    0.0455455        287.97       288.588     0.0801384       6.44948      0.519678             0       2.84432     -0.543103             0       14.4493      -0.52544             0       2.62912             0             0      0.220084   1.18984e-15     0.0431129        102018        103099        257483   2.18001e-15