#           y             T         TMean   TPrime2Mean           U_x           U_y           U_z       UMean_x       UMean_y       UMean_z UPrime2Mea... UPrime2Mea... UPrime2Mea... UPrime2Mea... UPrime2Mea... UPrime2Mea...            O2           H2O          C3H8             p         pMean   pPrime2Mean           CO2
  1.11022e-19       287.727       288.181      0.186025       30.8281  -8.80931e-17             0       16.7188   8.59948e-18             0       40.7934   -1.1894e-17             0   2.33704e-17             0             0      0.218079   1.55918e-16     0.0518323        102414        103181        263674   2.85671e-16
  0.000500501       287.807       288.182      0.190082       30.6363     -0.397133             0       16.7276     0.0387674             0       40.7795    -0.0536195             0      0.105356             0             0       0.21123   2.10683e-16     0.0816071        102414        103181        263662   3.86011e-16
     0.001001       287.886       288.183      0.194153       30.4435     -0.794233             0       16.7366      0.077534             0       40.7654     -0.107247             0      0.210968             0             0      0.204367    2.6555e-16       0.11145        102413        103181        263650   4.86538e-16
    0.0015015       288.034       288.188      0.205477       29.7287      -1.17465             0       16.7539       0.11594             0       40.6894     -0.164705             0      0.444198             0             0      0.189711   3.71293e-16      0.175171        102413        103181        263616   6.80278e-16
     0.002002       288.182       288.192      0.216809       29.0117      -1.55506             0       16.7711      0.154343             0        40.612     -0.222072             0      0.677916             0             0      0.175066   4.76944e-16      0.238842        102412        103180        263582    8.7385e-16
    0.0025025       288.275       288.201      0.230029       27.7602      -1.93438             0       16.7632      0.191936             0       40.2161     -0.256518             0       1.03333             0             0      0.163289   5.59732e-16      0.290049        102412        103180        263588   1.02553e-15
     0.003003       288.368        288.21      0.243225       26.5089      -2.31373             0        16.755      0.229526             0       39.8168     -0.290596             0        1.3893             0             0      0.151553   6.42321e-16      0.341073        102411        103180        263594   1.17685e-15
    0.0035035       288.396       288.226      0.252299       25.2801      -2.69698             0       16.6963      0.266713             0       38.8666     -0.263608             0       1.83801             0             0      0.146762   6.91847e-16      0.361906        102410        103179        263617   1.26759e-15
     0.004004       288.424       288.242      0.261344       24.0559      -3.08027             0       16.6372      0.303903             0       37.9145     -0.236249             0        2.2873             0             0      0.142013   7.41283e-16      0.382553        102409        103178        263641   1.35817e-15
    0.0045045       288.414       288.262      0.266721       23.3925      -3.46886             0       16.5403      0.341473             0       36.7337      -0.16287             0         2.809             0             0       0.14259   7.79693e-16      0.380045        102408        103178        263670   1.42854e-15
   0.00500501       288.404       288.281      0.272081       22.7339      -3.85753             0       16.4432      0.379026             0       35.5556     -0.089576             0       3.33138             0             0      0.143219   8.18176e-16      0.377309        102406        103177        263699   1.49905e-15
   0.00550551       288.356       288.296      0.275764       22.5426      -4.25489             0       16.3351      0.414971             0       34.6486    -0.0247408             0       3.92099             0             0      0.149043   8.63817e-16      0.351989        102405        103176        263784   1.58267e-15
   0.00600601       288.308       288.312      0.279433       22.3551      -4.65334             0       16.2272      0.450864             0        33.746     0.0388804             0       4.51162             0             0      0.154897   9.09517e-16      0.326535        102404        103175        263869   1.66641e-15
   0.00650651        288.23       288.324      0.281905       22.4851      -5.14127             0       16.1288      0.482573             0       33.2025    0.00255945             0       5.18659             0             0      0.163285   9.59999e-16      0.290064        102402        103175        263974    1.7589e-15
   0.00700701       288.153       288.337      0.284357       22.6195       -5.6313             0       16.0309      0.514197             0       32.6644    -0.0365382             0       5.86337             0             0      0.171639    1.0106e-15      0.253742        102401        103174        264080   1.85161e-15
   0.00750751       288.079       288.345      0.285353       23.0695      -6.26889             0       15.9601      0.539851             0        32.501     -0.271194             0       6.66825             0             0      0.177587   1.06966e-15      0.227884        102399        103173        264216   1.95982e-15
   0.00800801       288.005       288.353      0.286299       23.5173      -6.90614             0       15.8898      0.565516             0       32.3448     -0.507282             0       7.47564             0             0      0.183479   1.12855e-15      0.202266        102397        103172        264355   2.06772e-15
   0.00850851       287.973       288.354       0.28415       23.8305      -7.52258             0       15.8512      0.591811             0       32.6349     -0.831445             0       8.43795             0             0      0.185982   1.17687e-15      0.191385        102394        103171        264616   2.15624e-15
   0.00900901       287.942       288.355      0.281941       24.1341      -8.13633             0       15.8127       0.61828             0       32.9274      -1.15225             0       9.40222             0             0      0.188451    1.2246e-15      0.180647        102391        103170        264881    2.2437e-15
   0.00950951       287.942       288.353      0.276497       23.9105      -8.60284             0       15.7738      0.654222             0       33.3497      -1.29004             0       10.4737             0             0      0.189129   1.24068e-15        0.1777        102387        103168        265302   2.27315e-15
      0.01001       287.941       288.351       0.27105       23.6812      -9.06816             0       15.7342      0.690402             0       33.7672      -1.42181             0       11.5459             0             0      0.189799   1.25642e-15      0.174789        102383        103167        265725   2.30199e-15
    0.0105105       287.941       288.352      0.265463       23.1785      -9.47566             0       15.6521      0.738231             0       33.9479      -1.25921             0       12.6572             0             0      0.190061   1.25593e-15      0.173647        102379        103165        266271   2.30111e-15
     0.011011        287.94       288.353      0.259921       22.6762      -9.88366             0       15.5687      0.786201             0       34.1269      -1.09153             0        13.769             0             0      0.190321   1.25534e-15      0.172517        102374        103164        266820   2.30002e-15
    0.0115115       287.937       288.358       0.25639       22.1877      -10.3139             0       15.4267      0.840515             0       34.2324     -0.697853             0       14.9086             0             0      0.190464   1.24971e-15      0.171896        102370        103162        267514   2.28971e-15
     0.012012       287.934       288.364      0.252878       21.7016      -10.7451             0       15.2832      0.894865             0       34.3438     -0.300192             0       16.0483             0             0      0.190603   1.24405e-15       0.17129        102365        103160        268213   2.27934e-15
    0.0125125        287.93       288.371      0.250104       21.3147      -11.2163             0       15.0743      0.950712             0       34.6986      0.259531             0       17.1952             0             0      0.190614   1.23689e-15      0.171244        102361        103158        269069   2.26621e-15
     0.013013       287.927       288.379      0.247359        20.931      -11.6889             0       14.8635       1.00645             0       35.0594      0.820961             0       18.3408             0             0      0.190622   1.22981e-15      0.171209        102356        103156        269931   2.25325e-15
    0.0135135       287.924       288.388      0.245716       20.6722      -12.2165             0         14.58       1.05806             0       35.6477       1.44635             0       19.4352             0             0      0.190545   1.22604e-15      0.171542        102351        103154        271030   2.24633e-15
     0.014014       287.922       288.397      0.244124       20.4137      -12.7438             0        14.295       1.10927             0       36.2395       2.06883             0       20.5276             0             0      0.190469   1.22236e-15      0.171874        102346        103152        272137   2.23959e-15
    0.0145145       287.919       288.403      0.244337       20.1637      -13.2662             0       13.9541       1.14627             0       36.9547       2.59003             0       21.5492             0             0      0.190405   1.22185e-15      0.172153        102341        103150        273516   2.23866e-15
     0.015015       287.917       288.409      0.244584       19.9116      -13.7869             0       13.6124       1.18262             0        37.668       3.10562             0       22.5688             0             0      0.190342   1.22136e-15      0.172425        102336        103148        274903   2.23777e-15
    0.0155155       287.914       288.413      0.245954       19.5878      -14.2562             0       13.2431       1.19775             0       38.3184       3.43994             0       23.5254             0             0      0.190336   1.22135e-15      0.172453        102331        103146        276544   2.23774e-15
     0.016016       287.912       288.416       0.24731       19.2629      -14.7242             0       12.8737       1.21227             0       38.9563       3.76986             0       24.4805             0             0      0.190331   1.22134e-15      0.172473        102326        103145        278193   2.23773e-15
    0.0165165        287.91       288.417      0.248251       18.9044      -15.1545             0       12.5004       1.20818             0       39.2141       3.96643             0       25.3902             0             0      0.190372   1.22145e-15      0.172294        102321        103143        280120   2.23792e-15
     0.017017       287.908       288.417      0.249082       18.5447      -15.5828             0       12.1277       1.20379             0       39.4553        4.1609             0       26.2991             0             0      0.190416   1.22156e-15      0.172105        102316        103141        282051   2.23813e-15
    0.0175175       287.906       288.414      0.246814       18.1512      -15.9544             0       11.7734       1.19083             0       39.2238       4.29591             0       27.1847             0             0      0.190522   1.22184e-15      0.171644        102311        103139        284133   2.23864e-15
     0.018018       287.904       288.411      0.244462       17.7559      -16.3234             0       11.4199       1.17782             0       38.9736       4.42933             0       28.0708             0             0      0.190629   1.22212e-15      0.171178        102306        103138        286219   2.23914e-15
    0.0185185       287.901       288.404      0.239871       17.3159      -16.6207             0       11.0902       1.16354             0       38.2243       4.52037             0        28.973             0             0      0.190765    1.2222e-15      0.170588        102301        103136        288420    2.2393e-15
     0.019019       287.898       288.398      0.235361       16.8748      -16.9155             0       10.7611       1.14921             0        37.454       4.60863             0       29.8782             0             0      0.190901   1.22225e-15      0.169995        102296        103135        290623   2.23939e-15
    0.0195195       287.895       288.393      0.232888       16.4058      -17.1448             0       10.4482       1.13354             0       36.1556       4.62646             0       30.8604             0             0      0.191061    1.2215e-15      0.169302        102292        103133        292868   2.23802e-15
      0.02002       287.891       288.388      0.230485       15.9359      -17.3713             0        10.136       1.11772             0       34.8429       4.64063             0       31.8469             0             0      0.191222   1.22072e-15      0.168602        102287        103132        295108   2.23659e-15
    0.0205205       287.886        288.39      0.229744       15.4436      -17.5315             0       9.83754       1.09817             0       33.1875       4.56659             0       32.9367             0             0      0.191414   1.21915e-15      0.167766        102283        103130        297219   2.23372e-15
     0.021021       287.881       288.393      0.229004       14.9505      -17.6888             0       9.53964       1.07847             0       31.5277        4.4881             0       34.0297             0             0      0.191604   1.21757e-15      0.166937        102279        103129        299320   2.23082e-15
    0.0215215       287.877       288.402      0.228287       14.4388      -17.7825             0       9.25402       1.05505             0       29.7689       4.30795             0       35.1946             0             0       0.19176   1.21573e-15      0.166262        102276        103128        301211   2.22745e-15
     0.022022       287.873       288.412      0.227645       13.9263      -17.8735             0       8.96863       1.03145             0       28.0151        4.1231             0       36.3597             0             0      0.191913   1.21391e-15      0.165598        102273        103126        303085   2.22411e-15
    0.0225225        287.87       288.424      0.228597       13.3982      -17.9044             0       8.68835       1.00388             0       26.3693       3.83628             0        37.528             0             0      0.192012   1.21244e-15      0.165164        102271        103125        304593   2.22141e-15
     0.023023       287.868       288.436      0.229612       12.8694      -17.9326             0        8.4081      0.975991             0       24.7354       3.54584             0       38.6931             0             0       0.19211   1.21098e-15       0.16474        102269        103124        306080   2.21874e-15
    0.0235235       287.867       288.447      0.231906       12.3252       -17.902             0       8.12884      0.941381             0       23.3479        3.1805             0       39.7926             0             0      0.192161   1.20985e-15      0.164517        102268        103123        307139   2.21668e-15
     0.024024       287.866       288.457      0.234279       11.7806      -17.8686             0       7.85003      0.906294             0       21.9758       2.81362             0       40.8866             0             0       0.19221   1.20874e-15      0.164304        102268        103122        308174   2.21463e-15
    0.0245245       287.868       288.466      0.238208        11.225      -17.7795             0       7.58043      0.861757             0       20.9079       2.41616             0       41.8692             0             0      0.192214   1.20781e-15      0.164288        102268        103122        308734   2.21294e-15
     0.025025       287.869       288.476      0.242143       10.6691      -17.6877             0       7.31199      0.816793             0       19.8597       2.01832             0       42.8448             0             0      0.192215   1.20692e-15      0.164283        102268        103121        309265    2.2113e-15
    0.0255255       287.873       288.485      0.246173       10.1076      -17.5431             0        7.0658      0.763739             0       19.1826       1.61343             0       43.6867             0             0      0.192163   1.20652e-15      0.164508        102269        103121        309251   2.21058e-15
     0.026026       287.877       288.495      0.250035       9.54618      -17.3959             0       6.82108       0.71045             0       18.5294        1.2073             0       44.5208             0             0      0.192105   1.20619e-15      0.164759        102271        103121        309206   2.20996e-15
    0.0265265       287.886       288.504      0.250838       8.98601      -17.1997             0        6.6033      0.652888             0       18.3119       0.77855             0       45.2127             0             0      0.191939   1.20689e-15      0.165484        102272        103121        308615   2.21125e-15
     0.027027       287.895       288.513      0.251455       8.42639      -17.0008             0       6.38697       0.59525             0       18.1213      0.346674             0       45.8964             0             0       0.19177   1.20767e-15      0.166217        102274        103121        307995   2.21268e-15
    0.0275275       287.907       288.521      0.248822       7.87665      -16.7562             0       6.19596      0.536279             0          18.4     -0.139888             0       46.4355             0             0      0.191575   1.20978e-15      0.167065        102277        103121        306873   2.21654e-15
     0.028028       287.919       288.528      0.246092       7.32814       -16.509             0       6.00642      0.477329             0       18.7038     -0.630401             0       46.9652             0             0      0.191383   1.21196e-15      0.167901        102280        103121        305728   2.22053e-15
    0.0285285       287.929       288.531      0.241734       6.80045      -16.2174             0       5.84157      0.418705             0       19.4288      -1.18752             0       47.3369             0             0      0.191239   1.21531e-15      0.168524        102282        103121        304187   2.22668e-15
     0.029029       287.939       288.534      0.237423       6.27489       -15.923             0       5.67825      0.360125             0       20.1709      -1.74739             0       47.6964             0             0      0.191096   1.21873e-15      0.169146        102285        103122        302633   2.23294e-15
    0.0295295        287.95       288.534       0.23387       5.78384       -15.584             0       5.53985      0.302268             0       21.1903      -2.35189             0       47.8567             0             0      0.190956   1.22313e-15      0.169755        102288        103122        300842     2.241e-15
      0.03003       287.961       288.534      0.230366        5.2959      -15.2421             0        5.4027      0.244599             0       22.2175      -2.95672             0       48.0004             0             0      0.190819   1.22758e-15      0.170352        102291        103123        299041   2.24915e-15
    0.0305305       287.971       288.534      0.227638       4.85642      -14.8545             0        5.2852      0.189883             0       23.3659      -3.56653             0       47.8819             0             0      0.190722   1.23281e-15      0.170772        102294        103124        297089   2.25873e-15
     0.031031       287.981       288.533      0.224872       4.42094       -14.464             0       5.16838      0.135696             0       24.5141      -4.17351             0       47.7426             0             0      0.190629   1.23808e-15      0.171179        102297        103125        295130    2.2684e-15
    0.0315315       287.988       288.531      0.221531       4.04583       -14.028             0       5.06181     0.0895075             0       25.6593      -4.73756             0       47.2901             0             0      0.190584    1.2441e-15      0.171374        102300        103127        293068   2.27943e-15
     0.032032       287.995        288.53      0.218129        3.6751      -13.5893             0        4.9561     0.0440956             0       26.7978      -5.29716             0       46.8154             0             0      0.190541   1.25011e-15      0.171563        102303        103128        291006   2.29044e-15
    0.0325325           288       288.528      0.213835       3.36837      -13.1102             0       4.86315     0.0100343             0       27.8389      -5.79177             0       46.0165             0             0      0.190519    1.2559e-15      0.171659        102306        103130        288942   2.30103e-15
     0.033033       288.004       288.527      0.209473       3.06532      -12.6292             0         4.772     -0.023266             0        28.875      -6.28474             0       45.1992             0             0      0.190497   1.26162e-15      0.171752        102308        103131        286881   2.31152e-15
    0.0335335       288.006       288.526      0.204154        2.8143      -12.1205             0       4.70641    -0.0457985             0       29.8391      -6.75462             0       44.1219             0             0      0.190482    1.2665e-15      0.171819        102311        103133        284869   2.32047e-15
     0.034034       288.007       288.526      0.198826       2.56496      -11.6112             0        4.6433    -0.0678571             0       30.8086      -7.22338             0       43.0315             0             0      0.190465   1.27164e-15      0.171891        102313        103135        282868   2.32987e-15
    0.0345345       288.008       288.525      0.193368       2.33859      -11.0943             0       4.61417    -0.0834226             0       31.8517      -7.67674             0       41.7608             0             0      0.190433   1.28025e-15      0.172032        102316        103137        281020   2.34566e-15
     0.035035       288.009       288.525      0.187956       2.11126      -10.5784             0       4.58793     -0.098858             0       32.9023      -8.12381             0       40.4802             0             0      0.190397   1.28969e-15      0.172189        102318        103139        279185   2.36296e-15
    0.0355355       288.009       288.525      0.183133       1.87101      -10.0755             0       4.60008     -0.112566             0       34.0517      -8.48723             0       39.0666             0             0       0.19031   1.31015e-15      0.172566        102320        103141        277529   2.40045e-15
     0.036036        288.01       288.524      0.178312        1.6282      -9.57457             0       4.61476     -0.125943             0       35.2129      -8.84456             0       37.6463             0             0      0.190218    1.3315e-15      0.172964        102323        103143        275884   2.43956e-15
    0.0365365       288.008       288.525      0.173505       1.35236      -9.10059             0       4.66195     -0.135042             0       36.5266      -9.12324             0       36.1377             0             0      0.190065   1.36428e-15      0.173631        102325        103145        274383   2.49961e-15
     0.037037       288.005       288.525      0.168734       1.07552      -8.62915             0       4.71076     -0.143433             0       37.8637      -9.40207             0       34.6231             0             0      0.189909   1.39731e-15       0.17431        102326        103147        272897   2.56014e-15
    0.0375375       287.997       288.526      0.164417      0.786162      -8.18944             0       4.77985     -0.142949             0       39.4927      -9.68269             0       33.0319             0             0      0.189719   1.43361e-15      0.175136        102328        103149        271614   2.62664e-15
     0.038038       287.987       288.526      0.160316      0.500745      -7.75284             0       4.85054     -0.141897             0        41.127      -9.96709             0       31.4364             0             0      0.189528   1.46967e-15      0.175965        102330        103152        270347   2.69272e-15
    0.0385385       287.968       288.525      0.158835      0.263192      -7.35411             0       4.94069     -0.133934             0       42.8247      -10.2975             0       29.7878             0             0      0.189331   1.50287e-15      0.176824        102331        103154        269281   2.75354e-15
     0.039039       287.949       288.523      0.157633     0.0347042      -6.95962             0       5.03271     -0.125756             0        44.491       -10.628             0       28.1396             0             0      0.189133   1.53567e-15      0.177684        102332        103156        268233   2.81363e-15
    0.0395395        287.92       288.517      0.159718    -0.0866331      -6.61513             0       5.14683     -0.115039             0       45.7868      -10.9596             0       26.4956             0             0       0.18893   1.56373e-15      0.178567        102333        103158        267380   2.86505e-15
      0.04004       287.892       288.511      0.161995     -0.198181      -6.27561             0       5.26149     -0.104346             0       47.0539      -11.2841             0       24.8548             0             0      0.188725   1.59131e-15      0.179455        102334        103161        266555   2.91558e-15
    0.0405405       287.861       288.501      0.166488     -0.197148      -5.99332             0       5.38223    -0.0939412             0         47.99      -11.5267             0       23.2501             0             0      0.188504   1.61326e-15      0.180416        102335        103163        266043   2.95579e-15
     0.041041       287.831       288.491      0.171071     -0.189601      -5.71421             0       5.50058     -0.083523             0       48.9353      -11.7608             0       21.6491             0             0      0.188283   1.63463e-15      0.181377        102336        103165        265552   2.99495e-15
    0.0415415       287.809       288.479      0.176653     -0.109129      -5.47072             0       5.59214     -0.072956             0       49.9839      -11.9002             0       20.0875             0             0       0.18806   1.64954e-15      0.182346        102337        103167        265298   3.02226e-15
     0.042042       287.787       288.467      0.182187    -0.0247961      -5.22751             0       5.67992    -0.0624166             0       51.0431      -12.0259             0       18.5274             0             0      0.187839   1.66402e-15      0.183308        102338        103169        265057   3.04879e-15
    0.0425425       287.772       288.455      0.187199      0.101647      -4.98748             0       5.72641    -0.0521791             0       52.2186       -12.003             0       16.9821             0             0      0.187635   1.67384e-15      0.184196        102340        103171        264956   3.06678e-15
     0.043043       287.758       288.443      0.192106      0.231215      -4.74583             0        5.7699    -0.0424721             0        53.347      -11.9522             0       15.4353             0             0      0.187431   1.68341e-15      0.185081        102341        103173        264873   3.08432e-15
    0.0435435       287.747       288.434      0.195894      0.393988      -4.48706             0       5.78146    -0.0384033             0        53.975       -11.606             0       13.8721             0             0      0.187238   1.69038e-15      0.185922        102343        103175        264968   3.09709e-15
     0.044044       287.736       288.426      0.199662      0.558601      -4.22659             0       5.78933    -0.0352822             0       54.5292      -11.2281             0       12.3118             0             0      0.187048   1.69718e-15      0.186748        102344        103177        265072   3.10955e-15
    0.0445445       287.729        288.42      0.203228      0.742285      -3.94849             0       5.75897    -0.0419829             0       54.3179      -10.5222             0       10.7824             0             0      0.186893   1.70217e-15       0.18742        102346        103179        265260    3.1187e-15
     0.045045       287.722       288.414      0.206635      0.925162      -3.66823             0        5.7227    -0.0488658             0       54.0751      -9.79151             0       9.26378             0             0      0.186741   1.70724e-15      0.188085        102348        103180        265455   3.12798e-15
    0.0455455       287.722       288.407       0.20843       1.09988      -3.36613             0       5.62659    -0.0575918             0       53.5146      -8.81004             0       7.85334             0             0      0.186602     1.713e-15      0.188688        102350        103182        265714   3.13854e-15