#           y             T         TMean   TPrime2Mean           U_x           U_y           U_z       UMean_x       UMean_y       UMean_z UPrime2Mea... UPrime2Mea... UPrime2Mea... UPrime2Mea... UPrime2Mea... UPrime2Mea...            O2           H2O          C3H8             p         pMean   pPrime2Mean           CO2
            0       287.732        288.32      0.233156       18.8615             0             0       13.7955             0             0       25.2728             0             0             0             0             0       0.22951      4.86e-17    0.00212865        102406        103187        252749   8.90443e-17
  0.000500501       287.727       288.326      0.234468       18.8568      0.119992             0       13.8077    0.00983241             0       25.2807    -0.0241855             0     0.0664766             0             0      0.229434   5.23004e-17     0.0024598        102406        103187        252755   9.58242e-17
     0.001001       287.723       288.331      0.235784       18.8522      0.239986             0       13.8199     0.0196665             0       25.2888    -0.0483581             0      0.133126             0             0      0.229358    5.6019e-17    0.00279312        102406        103187        252762   1.02637e-16
    0.0015015       287.709       288.343      0.239186        18.834       0.36046             0       13.8477     0.0303656             0       25.3881    -0.0661409             0      0.286193             0             0      0.229033   6.87875e-17    0.00420649        102407        103187        252742   1.26031e-16
     0.002002       287.696       288.355      0.242603       18.8157      0.480842             0       13.8755     0.0410592             0       25.4882    -0.0840069             0      0.439678             0             0      0.228706   8.15952e-17    0.00562728        102407        103187        252722   1.49498e-16
    0.0025025       287.656       288.366      0.249548       18.7873      0.578396             0       13.9154     0.0503921             0       25.7804     -0.122615             0      0.697308             0             0      0.227954    1.0417e-16    0.00889393        102407        103186        252657   1.90859e-16
     0.003003       287.616       288.377      0.256496       18.7587      0.675663             0       13.9555     0.0596976             0       26.0738      -0.16163             0      0.955681             0             0      0.227197   1.26818e-16     0.0121855        102407        103186        252591   2.32354e-16
    0.0035035       287.548       288.383      0.263937       18.7167      0.725523             0       14.0144     0.0644772             0        26.571     -0.268079             0       1.33716             0             0       0.22549   1.61579e-16      0.019607        102407        103185        252442   2.96044e-16
     0.004004        287.48        288.39      0.271297       18.6748      0.774927             0       14.0734     0.0692182             0       27.0686      -0.37523             0       1.71965             0             0      0.223774   1.96413e-16     0.0270678        102407        103185        252292   3.59866e-16
    0.0045045       287.445       288.397      0.268555       18.6367      0.767818             0       14.1364     0.0691914             0       27.6258     -0.569503             0       2.22897             0             0      0.220935   2.40237e-16     0.0394152        102408        103184        252060   4.40159e-16
   0.00500501       287.411       288.404      0.265719       18.5986      0.760077             0       14.1991     0.0691544             0       28.1803     -0.764124             0       2.73917             0             0      0.218088    2.8408e-16     0.0517898        102408        103184        251827   5.20487e-16
   0.00550551       287.468       288.414      0.253601       18.5471      0.689668             0       14.2282     0.0681096             0       28.4622     -0.993295             0       3.33657             0             0      0.214623   3.29788e-16     0.0668586        102408        103183        251570   6.04233e-16
   0.00600601       287.526       288.425      0.241491       18.4941      0.619583             0       14.2564     0.0671073             0       28.7364      -1.22162             0       3.93412             0             0      0.211151   3.75587e-16     0.0819514        102408        103182        251311   6.88145e-16
   0.00650651        287.64       288.435      0.230023       18.3091      0.576252             0       14.2179     0.0696088             0       28.3869      -1.38035             0       4.54442             0             0      0.207224   4.28839e-16     0.0990248        102408        103181        251005   7.85712e-16
   0.00700701       287.755       288.446      0.218604       18.1219      0.534052             0       14.1784     0.0721843             0       28.0273      -1.53729             0       5.15411             0             0      0.203297   4.82222e-16      0.116101        102408        103181        250697   8.83521e-16
   0.00750751       287.865       288.455      0.210693       17.7787      0.571494             0       14.0667     0.0799633             0       26.9646      -1.56731             0       5.72098             0             0       0.19933    5.4487e-16      0.133349        102408        103180        250345   9.98303e-16
   0.00800801       287.974       288.465      0.202812       17.4345      0.609374             0       13.9543     0.0877877             0       25.8952      -1.59612             0        6.2872             0             0       0.19538   6.07402e-16      0.150522        102408        103179        249993   1.11287e-15
   0.00850851       288.049       288.474      0.196791       17.0278       0.67421             0       13.7928     0.0983988             0       24.4092      -1.55009             0       6.81376             0             0      0.192491   6.62895e-16      0.163082        102408        103178        249632   1.21455e-15
   0.00900901       288.123       288.484      0.190789       16.6209       0.73911             0        13.631      0.108991             0       22.9223      -1.50429             0       7.34004             0             0      0.189628   7.18044e-16      0.175528        102408        103177        249271   1.31559e-15
   0.00950951       288.154       288.494      0.185879       16.2077      0.807505             0       13.4497      0.118554             0       21.3863      -1.47076             0       7.85128             0             0      0.188188   7.54416e-16      0.181791        102408        103176        248907   1.38223e-15
      0.01001       288.184       288.505      0.181002       15.7953      0.876128             0       13.2682      0.128086             0       19.8527      -1.43773             0        8.3621             0             0      0.186764   7.90518e-16      0.187981        102408        103176        248542   1.44838e-15
    0.0105105        288.19       288.517      0.177775       15.4207      0.955944             0       13.0821      0.136084             0       18.4356      -1.42881             0        8.8518             0             0      0.186152   8.13381e-16      0.190645        102408        103175        248174   1.49027e-15
     0.011011       288.196       288.528      0.174625       15.0488       1.03604             0       12.8959       0.14411             0       17.0203       -1.4193             0       9.34029             0             0      0.185547   8.36079e-16      0.193274        102407        103174        247806   1.53185e-15
    0.0115115       288.193       288.539      0.174903       14.7994       1.12867             0        12.701       0.15336             0       15.6853      -1.38372             0       9.77449             0             0      0.185296   8.51409e-16      0.194365        102407        103173        247431   1.55994e-15
     0.012012        288.19        288.55      0.175235       14.5554       1.22145             0       12.5057      0.162655             0       14.3518      -1.34717             0       10.2071             0             0      0.185048   8.66612e-16      0.195442        102407        103172        247057    1.5878e-15
    0.0125125       288.183       288.559      0.177761       14.5295       1.32018             0       12.2975      0.173791             0       13.0815      -1.27153             0       10.5737             0             0      0.184933   8.76646e-16      0.195942        102406        103171        246725   1.60618e-15
     0.013013       288.177       288.569      0.180245       14.5105       1.41902             0       12.0892      0.184919             0       11.8168      -1.19582             0       10.9392             0             0      0.184817   8.86612e-16      0.196449        102405        103171        246393   1.62444e-15
    0.0135135       288.171       288.577      0.181108       14.7479       1.52178             0       11.8797      0.195772             0       10.7563      -1.11758             0       11.2577             0             0      0.184643   8.93993e-16      0.197204        102404        103170        246078   1.63796e-15
     0.014014       288.166       288.585      0.181903       14.9909       1.62457             0       11.6704      0.206639             0       9.70594      -1.03921             0       11.5741             0             0      0.184466   9.01337e-16      0.197973        102403        103170        245763   1.65142e-15
    0.0145145       288.164       288.592      0.180331       15.4262       1.72884             0       11.4672      0.217971             0       9.00892     -0.956176             0       11.8159             0             0       0.18419   9.07381e-16      0.199173        102403        103169        245465   1.66249e-15
     0.015015       288.163       288.599      0.178729       15.8632       1.83308             0       11.2638      0.229478             0       8.32376      -0.87193             0       12.0526             0             0      0.183914   9.13408e-16      0.200374        102403        103169        245169   1.67353e-15
    0.0155155       288.166       288.606      0.176124       16.3533       1.93635             0       11.0538      0.246624             0       8.02172     -0.748354             0       12.1256             0             0       0.18364   9.18874e-16      0.201563        102404        103169        244918   1.68355e-15
     0.016016       288.168       288.612      0.173557       16.8404       2.03996             0       10.8433      0.264009             0       7.73299     -0.625123             0       12.1922             0             0       0.18337   9.24326e-16      0.202738        102404        103168        244668   1.69354e-15
    0.0165165       288.172       288.617      0.172102        17.237       2.15407             0       10.6172      0.288619             0       7.84684     -0.512312             0       12.0649             0             0      0.183204   9.29354e-16       0.20346        102406        103168        244459   1.70275e-15
     0.017017       288.175       288.621      0.170724       17.6266       2.26938             0        10.391      0.313298             0       7.97631     -0.404218             0       11.9335             0             0      0.183042   9.34441e-16      0.204167        102407        103168        244250   1.71207e-15
    0.0175175       288.178       288.623      0.171521       17.8191       2.41919             0       10.1599      0.339968             0       8.54965     -0.430095             0       11.6832             0             0      0.182985   9.41191e-16      0.204412        102409        103168        244049   1.72444e-15
     0.018018       288.181       288.625      0.172398       18.0025       2.57051             0       9.92901      0.366542             0       9.13774     -0.462781             0        11.431             0             0      0.182936   9.48067e-16      0.204625        102411        103168        243848   1.73704e-15
    0.0185185       288.181       288.625      0.175447       17.9452       2.76249             0        9.7032      0.390551             0       10.1209     -0.677775             0       11.1286             0             0      0.183086   9.58315e-16      0.203974        102412        103168        243657   1.75581e-15
     0.019019        288.18       288.625      0.178561       17.8799        2.9549             0       9.47768      0.414473             0       11.1137     -0.897036             0       10.8248             0             0      0.183254    9.6886e-16      0.203243        102414        103169        243467   1.77513e-15
    0.0195195       288.168       288.624      0.183363        17.611       3.15815             0       9.25941      0.436215             0       12.3493      -1.22429             0       10.4842             0             0       0.18389   9.86922e-16      0.200479        102415        103169        243291   1.80823e-15
      0.02002       288.156       288.623      0.188224       17.3374       3.36039             0       9.04141      0.458002             0       13.5881      -1.54991             0       10.1422             0             0       0.18454   1.00525e-15      0.197653        102416        103169        243113    1.8418e-15
    0.0205205       288.134       288.623      0.194528       16.9515       3.53844             0       8.82979      0.480869             0       14.9028       -1.8363             0       9.76836             0             0       0.18553   1.02989e-15      0.193349        102416        103169        242896   1.88695e-15
     0.021021       288.113       288.622      0.200935        16.564       3.71555             0       8.61876      0.504018             0       16.2099      -2.11644             0       9.39295             0             0       0.18652   1.05444e-15      0.189044        102417        103170        242678   1.93194e-15
    0.0215215        288.09       288.622      0.209694       16.1378       3.87096             0       8.42134      0.533618             0       17.3418      -2.25419             0       8.98236             0             0      0.187519   1.07712e-15      0.184698        102417        103170        242454   1.97349e-15
     0.022022       288.067       288.623      0.218604       15.7113       4.02626             0       8.22522      0.563272             0       18.4527      -2.38158             0       8.57203             0             0      0.188511    1.0995e-15      0.180385        102417        103170        242231   2.01449e-15
    0.0225225       288.046       288.626      0.230764       15.2793       4.17887             0       8.05748      0.594084             0       19.1037      -2.28356             0       8.16717             0             0      0.189337   1.11535e-15      0.176796        102416        103171        242044   2.04352e-15
     0.023023       288.025       288.629      0.242929       14.8482       4.33121             0       7.89084      0.625152             0       19.7386      -2.17924             0       7.76531             0             0      0.190144   1.13063e-15      0.173288        102416        103171        241860   2.07152e-15
    0.0235235       288.009       288.631      0.255208       14.4359        4.4779             0       7.74704      0.661532             0       20.0384      -1.94416             0       7.42564             0             0      0.190565   1.13421e-15      0.171455        102416        103171        241733   2.07809e-15
     0.024024       287.993       288.633      0.267355        14.025       4.62369             0       7.60401      0.698215             0       20.3317      -1.70513             0       7.08957             0             0      0.190969   1.13733e-15      0.169699        102416        103171        241610    2.0838e-15
    0.0245245       287.982       288.634      0.276866        13.642        4.7519             0       7.47628      0.740915             0       20.4986       -1.3879             0       6.82493             0             0      0.191022   1.13119e-15      0.169471        102415        103171        241545   2.07255e-15
     0.025025       287.971       288.636      0.286293       13.2624       4.87708             0       7.34913      0.783736             0        20.668      -1.06653             0       6.56386             0             0      0.191064   1.12492e-15      0.169287        102415        103171        241485   2.06106e-15
    0.0255255       287.964       288.641      0.294107       12.9468       4.94469             0       7.23307       0.82885             0       20.8858     -0.666485             0       6.37068             0             0      0.190912   1.11624e-15       0.16995        102416        103171        241513   2.04516e-15
     0.026026       287.958       288.647      0.301769       12.6398       5.00445             0       7.11708      0.874487             0       21.1234     -0.272861             0       6.18322             0             0      0.190753    1.1076e-15       0.17064        102416        103171        241548   2.02933e-15
    0.0265265        287.96       288.653      0.306685        12.488       4.92117             0        7.0026      0.929631             0         21.72    0.00369258             0       6.10023             0             0      0.190476   1.09964e-15      0.171845        102416        103170        241697   2.01474e-15
     0.027027       287.961       288.658      0.311292       12.3464         4.829             0       6.88884      0.984973             0       22.3299      0.270166             0       6.02547             0             0        0.1902   1.09186e-15      0.173042        102417        103170        241852   2.00049e-15
    0.0275275       287.969        288.66        0.3105       12.3825       4.58106             0       6.78774       1.04378             0       23.1737      0.360061             0        6.0949             0             0      0.189957   1.08727e-15      0.174102        102418        103170        242103   1.99208e-15
     0.028028       287.977       288.661      0.309339       12.4216       4.33159             0         6.689       1.10218             0       23.9987      0.446163             0       6.17171             0             0      0.189719   1.08289e-15      0.175134        102419        103169        242358   1.98405e-15
    0.0285285        287.99       288.658      0.301966       12.5112       4.05624             0       6.62986       1.15394             0       24.5064      0.468345             0       6.37303             0             0      0.189591   1.08188e-15      0.175691        102420        103169        242689   1.98221e-15
     0.029029       288.004       288.654      0.294415       12.5937       3.78894             0       6.57414       1.20488             0       24.9669      0.494181             0       6.57979             0             0      0.189464     1.081e-15      0.176245        102421        103168        243027    1.9806e-15
    0.0295295       288.021       288.647      0.283966       12.5618       3.65242             0       6.57388       1.24248             0       24.6601      0.579372             0       6.87484             0             0      0.189351   1.08212e-15      0.176733        102422        103167        243464   1.98264e-15
      0.03003       288.039        288.64      0.273504       12.5217       3.52535             0       6.57664       1.27914             0       24.3018      0.669296             0       7.17301             0             0      0.189239   1.08347e-15      0.177221        102423        103166        243906   1.98512e-15
    0.0305305       288.052       288.635       0.26284       12.3541       3.54632             0       6.62664       1.30101             0       23.1361      0.833392             0       7.52006             0             0      0.189126   1.08859e-15      0.177713        102424        103166        244427    1.9945e-15
     0.031031       288.064       288.629      0.252073        12.188       3.56867             0       6.67827       1.32203             0       21.9381      0.996897             0       7.86825             0             0      0.189016   1.09382e-15      0.178191        102425        103165        244955   2.00408e-15
    0.0315315       288.064       288.628      0.239761       12.0425       3.61196             0       6.75461       1.33034             0       20.2496       1.15148             0       8.23379             0             0      0.188952   1.10076e-15      0.178469        102425        103164        245570    2.0168e-15
     0.032032       288.063       288.626      0.227352       11.9019       3.65189             0        6.8313       1.33806             0       18.5559        1.2991             0       8.59896             0             0      0.188891   1.10795e-15      0.178736        102426        103163        246189   2.02997e-15
    0.0325325       288.043       288.628      0.213542       11.8333       3.64255             0       6.91321       1.33728             0       16.7839       1.34493             0       8.95863             0             0      0.188864   1.11885e-15      0.178854        102427        103163        246871   2.04994e-15
     0.033033       288.023       288.629      0.199819        11.767       3.63203             0       6.99494       1.33623             0       15.0272       1.38149             0       9.31703             0             0      0.188838    1.1314e-15      0.178964        102427        103162        247551   2.07293e-15
    0.0335335        287.99       288.632      0.187339       11.7317       3.60468             0       7.07425       1.33131             0        13.487       1.28697             0       9.65756             0             0      0.188837   1.16738e-15      0.178969        102427        103161        248203   2.13886e-15
     0.034034       287.958       288.634      0.175038       11.7013       3.57505             0        7.1534       1.32625             0       11.9698       1.18428             0       9.99636             0             0      0.188834    1.2046e-15      0.178982        102427        103161        248855   2.20706e-15
    0.0345345       287.941       288.637      0.165207       11.7377       3.51424             0       7.23029       1.31929             0       10.7671      0.969511             0       10.3114             0             0      0.188803   1.25876e-15      0.179119        102427        103160        249507   2.30627e-15
     0.035035       287.925       288.639      0.155543       11.7749       3.45269             0       7.30741       1.31227             0       9.58225      0.746125             0       10.6231             0             0      0.188756   1.31357e-15       0.17932        102426        103160        250158    2.4067e-15
    0.0355355       287.938       288.641      0.148104       11.8217       3.38138             0       7.38745       1.30457             0       8.63444      0.408202             0       10.8906             0             0      0.188513   1.37713e-15       0.18038        102426        103160        250795   2.52315e-15
     0.036036       287.954       288.642      0.140798       11.8635       3.31157             0       7.46762       1.29675             0       7.70535     0.0607599             0         11.15             0             0      0.188209   1.44427e-15        0.1817        102425        103160        251424   2.64617e-15
    0.0365365           288       288.643       0.13519       11.8389        3.2613             0       7.54945        1.2876             0       7.01743      -0.40937             0       11.3039             0             0      0.187136   1.55764e-15      0.186364        102425        103160        251960   2.85388e-15
     0.037037       288.047       288.644      0.129679       11.8046       3.21183             0       7.63031       1.27803             0       6.36285     -0.886479             0       11.4448             0             0      0.186039   1.67078e-15      0.191134        102424        103160        252492   3.06117e-15
    0.0375375       288.093       288.646      0.125379       11.6482       3.17254             0       7.69887       1.26329             0       6.12556      -1.45091             0       11.4243             0             0       0.18464   1.78108e-15       0.19722        102423        103160        252966   3.26327e-15
     0.038038       288.137       288.647      0.121142        11.466        3.1352             0       7.76585       1.24811             0       5.93465      -2.01717             0       11.3894             0             0      0.183278   1.88683e-15       0.20314        102422        103160        253434   3.45702e-15
    0.0385385       288.161       288.648      0.117677       10.9684       3.12177             0       7.81356       1.22746             0        6.3077      -2.60571             0       11.1798             0             0      0.182377   1.93722e-15      0.207056        102421        103161        253824   3.54935e-15
     0.039039       288.185        288.65      0.114248       10.4407       3.10831             0       7.85973       1.20636             0       6.73459      -3.18974             0       10.9552             0             0      0.181499   1.98587e-15      0.210873        102420        103162        254201   3.63849e-15
    0.0395395       288.205       288.651      0.111255       9.55793       3.09441             0       7.88772       1.17984             0        7.7979      -3.72051             0       10.5545             0             0      0.180893   2.01395e-15       0.21351        102419        103163        254444   3.68993e-15
      0.04004       288.226       288.652      0.108304       8.65536       3.07879             0       7.91411        1.1528             0         8.916      -4.23978             0       10.1405             0             0      0.180298   2.04161e-15      0.216095        102418        103163        254681   3.74061e-15
    0.0405405       288.256       288.651      0.105835       7.52558       3.04332             0       7.92221       1.11972             0       10.6642      -4.62689             0       9.57379             0             0      0.179843   2.06445e-15      0.218072        102417        103165        254839   3.78246e-15
     0.041041       288.285       288.651      0.103399       6.37815       3.00445             0       7.92837       1.08607             0       12.4518      -4.99703             0        8.9972             0             0      0.179403   2.08657e-15      0.219987        102417        103166        254991   3.82299e-15
    0.0415415       288.314       288.647      0.101337       5.03306       2.92745             0       7.91279       1.04609             0       14.6799      -5.17723             0       8.31046             0             0      0.179121   2.10058e-15      0.221212        102416        103168        255068   3.84866e-15
     0.042042       288.341       288.643     0.0993301       3.67561       2.84678             0       7.89477       1.00542             0       16.9129       -5.3392             0       7.61938             0             0      0.178861   2.11369e-15      0.222344        102416        103169        255134   3.87268e-15
    0.0425425       288.351       288.637     0.0979246       2.18349       2.72601             0        7.8503      0.957134             0       19.1992      -5.30228             0       6.88116             0             0       0.17883   2.11702e-15       0.22248        102416        103171        255078   3.87877e-15
     0.043043       288.359       288.631      0.096621      0.700159       2.60317             0       7.80387      0.908193             0       21.4566      -5.25036             0       6.14511             0             0      0.178815   2.12007e-15      0.222544        102417        103172        255020   3.88436e-15
    0.0435435       288.352       288.624     0.0963994     -0.689773       2.45828             0        7.7367      0.852274             0        23.408      -5.03888             0        5.4321             0             0      0.178975   2.12021e-15      0.221849        102418        103173        254950   3.88463e-15
     0.044044       288.344       288.618     0.0962846      -2.05618       2.31148             0       7.66861      0.795706             0       25.3162      -4.81987             0       4.72466             0             0      0.179151   2.12002e-15      0.221081        102419        103175        254882   3.88428e-15
    0.0445445       288.321       288.611     0.0972767      -3.17874       2.14488             0       7.59096      0.732415             0       26.7756      -4.52272             0       4.07494             0             0      0.179502    2.1163e-15      0.219555        102420        103176        254844   3.87745e-15
     0.045045       288.296       288.604     0.0983411      -4.27925        1.9765             0       7.51229      0.668449             0        28.193      -4.22337             0       3.43166             0             0      0.179911   2.10988e-15       0.21778        102422        103177        254801    3.8657e-15
    0.0455455       288.246       288.599      0.100137      -5.15675       1.79018             0        7.4233      0.597671             0       29.1844      -3.90176             0       2.85344             0             0      0.180898   2.07631e-15      0.213485        102424        103178        254709   3.80419e-15