# vtk DataFile Version 2.0
sampleSurface
ASCII
DATASET POLYDATA
POINTS 16001 float
0 0 0.0005 0 0.001 0.0005 0.001 0 0.0005 -0.001 0
0.0005 0.001 0.001 0.0005 -0.001 0.001 0.0005 0.002 0 0.0005
0 0.002 0.0005 -0.002 0 0.0005 0.002 0.001 0.0005 0.001
0.002 0.0005 -0.002 0.001 0.0005 -0.001 0.002 0.0005 0.002 0.002
0.0005 -0.002 0.002 0.0005 0.003 0 0.0005 0 0.003 0.0005
-0.003 0 0.0005 0.003 0.001 0.0005 0.001 0.003 0.0005 -0.003
0.001 0.0005 -0.001 0.003 0.0005 0.003 0.002 0.0005 0.002 0.003
0.0005 -0.003 0.002 0.0005 -0.002 0.003 0.0005 0.004 0 0.0005
0 0.004 0.0005 -0.004 0 0.0005 0.004 0.001 0.0005 0.001
0.004 0.0005 -0.004 0.001 0.0005 -0.001 0.004 0.0005 0.003 0.003
0.0005 -0.003 0.003 0.0005 0.004 0.002 0.0005 0.002 0.004 0.0005
-0.004 0.002 0.0005 -0.002 0.004 0.0005 0.004 0.003 0.0005 0.003
0.004 0.0005 -0.004 0.003 0.0005 -0.003 0.004 0.0005 0.005 0
0.0005 0 0.005 0.0005 -0.005 0 0.0005 0.005 0.001 0.0005
0.001 0.005 0.0005 -0.005 0.001 0.0005 -0.001 0.005 0.0005 0.005
0.002 0.0005 0.002 0.005 0.0005 -0.005 0.002 0.0005 -0.002 0.005
0.0005 0.004 0.004 0.0005 -0.004 0.004 0.0005 0.005 0.003 0.0005
0.003 0.005 0.0005 -0.005 0.003 0.0005 -0.003 0.005 0.0005 0.006
0 0.0005 0 0.006 0.0005 -0.006 0 0.0005 0.006 0.001
0.0005 0.001 0.006 0.0005 -0.006 0.001 0.0005 -0.001 0.006 0.0005
0.006 0.002 0.0005 0.002 0.006 0.0005 -0.006 0.002 0.0005 -0.002
0.006 0.0005 0.005 0.004 0.0005 0.004 0.005 0.0005 -0.005 0.004
0.0005 -0.004 0.005 0.0005 0.006 0.003 0.0005 0.003 0.006 0.0005
-0.006 0.003 0.0005 -0.003 0.006 0.0005 0.007 0 0.0005 0
0.007 0.0005 -0.007 0 0.0005 0.007 0.001 0.0005 0.005 0.005
0.0005 0.001 0.007 0.0005 -0.007 0.001 0.0005 -0.005 0.005 0.0005
-0.001 0.007 0.0005 0.006 0.004 0.0005 0.004 0.006 0.0005 -0.006
0.004 0.0005 -0.004 0.006 0.0005 0.007 0.002 0.0005 0.002 0.007
0.0005 -0.007 0.002 0.0005 -0.002 0.007 0.0005 0.007 0.003 0.0005
0.003 0.007 0.0005 -0.007 0.003 0.0005 -0.003 0.007 0.0005 0.006
0.005 0.0005 0.005 0.006 0.0005 -0.006 0.005 0.0005 -0.005 0.006
0.0005 0.008 0 0.0005 0 0.008 0.0005 -0.008 0 0.0005
0.008 0.001 0.0005 0.001 0.008 0.0005 -0.008 0.001 0.0005 -0.001
0.008 0.0005 0.007 0.004 0.0005 0.004 0.007 0.0005 -0.007 0.004
0.0005 -0.004 0.007 0.0005 0.008 0.002 0.0005 0.002 0.008 0.0005
-0.008 0.002 0.0005 -0.002 0.008 0.0005 0.006 0.006 0.0005 -0.006
0.006 0.0005 0.008 0.003 0.0005 0.003 0.008 0.0005 -0.008 0.003
0.0005 -0.003 0.008 0.0005 0.007 0.005 0.0005 0.005 0.007 0.0005
-0.007 0.005 0.0005 -0.005 0.007 0.0005 0.008 0.004 0.0005 0.004
0.008 0.0005 -0.008 0.004 0.0005 -0.004 0.008 0.0005 0.009 0
0.0005 0 0.009 0.0005 -0.009 0 0.0005 0.009 0.001 0.0005
0.001 0.009 0.0005 -0.009 0.001 0.0005 -0.001 0.009 0.0005 0.009
0.002 0.0005 0.002 0.009 0.0005 -0.009 0.002 0.0005 -0.002 0.009
0.0005 0.007 0.006 0.0005 0.006 0.007 0.0005 -0.007 0.006 0.0005
-0.006 0.007 0.0005 0.008 0.005 0.0005 0.005 0.008 0.0005 -0.008
0.005 0.0005 -0.005 0.008 0.0005 0.009 0.003 0.0005 0.003 0.009
0.0005 -0.009 0.003 0.0005 -0.003 0.009 0.0005 0.009 0.004 0.0005
0.004 0.009 0.0005 -0.009 0.004 0.0005 -0.004 0.009 0.0005 0.007
0.007 0.0005 -0.007 0.007 0.0005 0.008 0.006 0.0005 0.006 0.008
0.0005 -0.008 0.006 0.0005 -0.006 0.008 0.0005 0.01 0 0.0005
0 0.01 0.0005 -0.01 0 0.0005 0.01 0.001 0.0005 0.001
0.01 0.0005 -0.01 0.001 0.0005 -0.001 0.01 0.0005 0.01 0.002
0.0005 0.002 0.01 0.0005 -0.01 0.002 0.0005 -0.002 0.01 0.0005
0.009 0.005 0.0005 0.005 0.009 0.0005 -0.009 0.005 0.0005 -0.005
0.009 0.0005 0.01 0.003 0.0005 0.003 0.01 0.0005 -0.01 0.003
0.0005 -0.003 0.01 0.0005 0.008 0.007 0.0005 0.007 0.008 0.0005
-0.008 0.007 0.0005 -0.007 0.008 0.0005 0.01 0.004 0.0005 0.004
0.01 0.0005 -0.01 0.004 0.0005 -0.004 0.01 0.0005 0.009 0.006
0.0005 0.006 0.009 0.0005 -0.009 0.006 0.0005 -0.006 0.009 0.0005
0.011 0 0.0005 0 0.011 0.0005 -0.011 0 0.0005 0.011
0.001 0.0005 0.001 0.011 0.0005 -0.011 0.001 0.0005 -0.001 0.011
0.0005 0.011 0.002 0.0005 0.002 0.011 0.0005 -0.011 0.002 0.0005
-0.002 0.011 0.0005 0.01 0.005 0.0005 0.005 0.01 0.0005 -0.01
0.005 0.0005 -0.005 0.01 0.0005 0.008 0.008 0.0005 -0.008 0.008
0.0005 0.011 0.003 0.0005 0.009 0.007 0.0005 0.007 0.009 0.0005
0.003 0.011 0.0005 -0.011 0.003 0.0005 -0.009 0.007 0.0005 -0.007
0.009 0.0005 -0.003 0.011 0.0005 0.01 0.006 0.0005 0.006 0.01
0.0005 -0.01 0.006 0.0005 -0.006 0.01 0.0005 0.011 0.004 0.0005
0.004 0.011 0.0005 -0.011 0.004 0.0005 -0.004 0.011 0.0005 0.012
0 0.0005 0 0.012 0.0005 -0.012 0 0.0005 0.012 0.001
0.0005 0.009 0.008 0.0005 0.008 0.009 0.0005 0.001 0.012 0.0005
-0.012 0.001 0.0005 -0.009 0.008 0.0005 -0.008 0.009 0.0005 -0.001
0.012 0.0005 0.011 0.005 0.0005 0.005 0.011 0.0005 -0.011 0.005
0.0005 -0.005 0.011 0.0005 0.012 0.002 0.0005 0.002 0.012 0.0005
-0.012 0.002 0.0005 -0.002 0.012 0.0005 0.01 0.007 0.0005 0.007
0.01 0.0005 -0.01 0.007 0.0005 -0.007 0.01 0.0005 0.012 0.003
0.0005 0.003 0.012 0.0005 -0.012 0.003 0.0005 -0.003 0.012 0.0005
0.011 0.006 0.0005 0.006 0.011 0.0005 -0.011 0.006 0.0005 -0.006
0.011 0.0005 0.012 0.004 0.0005 0.004 0.012 0.0005 -0.012 0.004
0.0005 -0.004 0.012 0.0005 0.009 0.009 0.0005 -0.009 0.009 0.0005
0.01 0.008 0.0005 0.008 0.01 0.0005 -0.01 0.008 0.0005 -0.008
0.01 0.0005 0.013 0 0.0005 0 0.013 0.0005 -0.013 0
0.0005 0.012 0.005 0.0005 0.005 0.012 0.0005 -0.012 0.005 0.0005
-0.005 0.012 0.0005 0.013 0.001 0.0005 0.011 0.007 0.0005 0.007
0.011 0.0005 0.001 0.013 0.0005 -0.013 0.001 0.0005 -0.011 0.007
0.0005 -0.007 0.011 0.0005 -0.001 0.013 0.0005 0.013 0.002 0.0005
0.002 0.013 0.0005 -0.013 0.002 0.0005 -0.002 0.013 0.0005 0.013
0.003 0.0005 0.003 0.013 0.0005 -0.013 0.003 0.0005 -0.003 0.013
0.0005 0.012 0.006 0.0005 0.006 0.012 0.0005 -0.012 0.006 0.0005
-0.006 0.012 0.0005 0.01 0.009 0.0005 0.009 0.01 0.0005 -0.01
0.009 0.0005 -0.009 0.01 0.0005 0.013 0.004 0.0005 0.011 0.008
0.0005 0.008 0.011 0.0005 0.004 0.013 0.0005 -0.013 0.004 0.0005
-0.011 0.008 0.0005 -0.008 0.011 0.0005 -0.004 0.013 0.0005 0.012
0.007 0.0005 0.007 0.012 0.0005 -0.012 0.007 0.0005 -0.007 0.012
0.0005 0.013 0.005 0.0005 0.005 0.013 0.0005 -0.013 0.005 0.0005
-0.005 0.013 0.0005 0.014 0 0.0005 0 0.014 0.0005 -0.014
0 0.0005 0.014 0.001 0.0005 0.001 0.014 0.0005 -0.014 0.001
0.0005 -0.001 0.014 0.0005 0.014 0.002 0.0005 0.01 0.01 0.0005
0.002 0.014 0.0005 -0.014 0.002 0.0005 -0.01 0.01 0.0005 -0.002
0.014 0.0005 0.011 0.009 0.0005 0.009 0.011 0.0005 -0.011 0.009
0.0005 -0.009 0.011 0.0005 0.013 0.006 0.0005 0.006 0.013 0.0005
-0.013 0.006 0.0005 -0.006 0.013 0.0005 0.014 0.003 0.0005 0.003
0.014 0.0005 -0.014 0.003 0.0005 -0.003 0.014 0.0005 0.012 0.008
0.0005 0.008 0.012 0.0005 -0.012 0.008 0.0005 -0.008 0.012 0.0005
0.014 0.004 0.0005 0.004 0.014 0.0005 -0.014 0.004 0.0005 -0.004
0.014 0.0005 0.013 0.007 0.0005 0.007 0.013 0.0005 -0.013 0.007
0.0005 -0.007 0.013 0.0005 0.011 0.01 0.0005 0.01 0.011 0.0005
-0.011 0.01 0.0005 -0.01 0.011 0.0005 0.014 0.005 0.0005 0.005
0.014 0.0005 -0.014 0.005 0.0005 -0.005 0.014 0.0005 0.015 0
0.0005 0.012 0.009 0.0005 0.009 0.012 0.0005 0 0.015 0.0005
-0.015 0 0.0005 -0.012 0.009 0.0005 -0.009 0.012 0.0005 0.015
0.001 0.0005 0.001 0.015 0.0005 -0.015 0.001 0.0005 -0.001 0.015
0.0005 0.015 0.002 0.0005 0.002 0.015 0.0005 -0.015 0.002 0.0005
-0.002 0.015 0.0005 0.014 0.006 0.0005 0.006 0.014 0.0005 -0.014
0.006 0.0005 -0.006 0.014 0.0005 0.013 0.008 0.0005 0.008 0.013
0.0005 -0.013 0.008 0.0005 -0.008 0.013 0.0005 0.015 0.003 0.0005
0.003 0.015 0.0005 -0.015 0.003 0.0005 -0.003 0.015 0.0005 0.015
0.004 0.0005 0.004 0.015 0.0005 -0.015 0.004 0.0005 -0.004 0.015
0.0005 0.011 0.011 0.0005 -0.011 0.011 0.0005 0.012 0.01 0.0005
0.01 0.012 0.0005 -0.012 0.01 0.0005 -0.01 0.012 0.0005 0.014
0.007 0.0005 0.007 0.014 0.0005 -0.014 0.007 0.0005 -0.007 0.014
0.0005 0.015 0.005 0.0005 0.013 0.009 0.0005 0.009 0.013 0.0005
0.005 0.015 0.0005 -0.015 0.005 0.0005 -0.013 0.009 0.0005 -0.009
0.013 0.0005 -0.005 0.015 0.0005 0.016 0 0.0005 0 0.016
0.0005 -0.016 0 0.0005 0.016 0.001 0.0005 0.001 0.016 0.0005
-0.016 0.001 0.0005 -0.001 0.016 0.0005 0.016 0.002 0.0005 0.002
0.016 0.0005 -0.016 0.002 0.0005 -0.002 0.016 0.0005 0.014 0.008
0.0005 0.008 0.014 0.0005 -0.014 0.008 0.0005 -0.008 0.014 0.0005
0.015 0.006 0.0005 0.006 0.015 0.0005 -0.015 0.006 0.0005 -0.006
0.015 0.0005 0.016 0.003 0.0005 0.012 0.011 0.0005 0.011 0.012
0.0005 0.003 0.016 0.0005 -0.016 0.003 0.0005 -0.012 0.011 0.0005
-0.011 0.012 0.0005 -0.003 0.016 0.0005 0.013 0.01 0.0005 0.01
0.013 0.0005 -0.013 0.01 0.0005 -0.01 0.013 0.0005 0.016 0.004
0.0005 0.004 0.016 0.0005 -0.016 0.004 0.0005 -0.004 0.016 0.0005
0.015 0.007 0.0005 0.007 0.015 0.0005 -0.015 0.007 0.0005 -0.007
0.015 0.0005 0.014 0.009 0.0005 0.009 0.014 0.0005 -0.014 0.009
0.0005 -0.009 0.014 0.0005 0.016 0.005 0.0005 0.005 0.016 0.0005
-0.016 0.005 0.0005 -0.005 0.016 0.0005 0.012 0.012 0.0005 -0.012
0.012 0.0005 0.015 0.008 0.0005 0.008 0.015 0.0005 -0.015 0.008
0.0005 -0.008 0.015 0.0005 0.017 0 0.0005 0 0.017 0.0005
-0.017 0 0.0005 0.013 0.011 0.0005 0.011 0.013 0.0005 -0.013
0.011 0.0005 -0.011 0.013 0.0005 0.017 0.001 0.0005 0.001 0.017
0.0005 -0.017 0.001 0.0005 -0.001 0.017 0.0005 0.016 0.006 0.0005
0.006 0.016 0.0005 -0.016 0.006 0.0005 -0.006 0.016 0.0005 0.017
0.002 0.0005 0.002 0.017 0.0005 -0.017 0.002 0.0005 -0.002 0.017
0.0005 0.014 0.01 0.0005 0.01 0.014 0.0005 -0.014 0.01 0.0005
-0.01 0.014 0.0005 0.017 0.003 0.0005 0.003 0.017 0.0005 -0.017
0.003 0.0005 -0.003 0.017 0.0005 0.016 0.007 0.0005 0.007 0.016
0.0005 -0.016 0.007 0.0005 -0.007 0.016 0.0005 0.017 0.004 0.0005
0.004 0.017 0.0005 -0.017 0.004 0.0005 -0.004 0.017 0.0005 0.015
0.009 0.0005 0.009 0.015 0.0005 -0.015 0.009 0.0005 -0.009 0.015
0.0005 0.013 0.012 0.0005 0.012 0.013 0.0005 -0.012 0.013 0.0005
-0.013 0.012 0.0005 0.017 0.005 0.0005 0.005 0.017 0.0005 -0.017
0.005 0.0005 -0.005 0.017 0.0005 0.014 0.011 0.0005 0.011 0.014
0.0005 -0.014 0.011 0.0005 -0.011 0.014 0.0005 0.016 0.008 0.0005
0.008 0.016 0.0005 -0.016 0.008 0.0005 -0.008 0.016 0.0005 0.018
[...]
POINT_DATA 16001
FIELD attributes 17
p 1 16001 float
103849 103849 103927 103755 103928 103756 103996 103851 103645 103999 103933
103648 103759 104010 103658 104065 103848 103526 104069 103933 103533
103760 104082 104014 103552 103670 104137 103845 103412 104138 103929
103421 103763 104087 103576 104147 104010 103448 103685 104147 104083
103483 103604 104204 103842 103311 104202 103920 103322 103769 104202
103995 103352 103702 104137 103521 104192 104062 103393 103632 104258
103855 103229 104253 103922 103240 103790 104244 103984 103269 103731
104175 104109 103434 103557 104222 104043 103308 103665 104298 103886
103166 104290 104142 103941 103175 103471 103827 104198 104081 103347
103591 104274 103988 103198 103770 104245 104035 103229 103703 104163
104110 103378 103501 104326 103942 103119 104316 103978 103124 103883
104214 104061 103258 103625 104297 104002 103136 103822 104130 103400
104263 104047 103153 103747 104179 104083 103280 103526 104228 104069
103168 103659 104348 104006 103079 104338 104027 103079 103943 104317
104039 103078 103874 104150 104103 103291 103415 104191 104089 103178
103548 104280 104089 103077 103788 104243 104100 103076 103689 104125
103295 104164 104101 103181 103426 104366 104103 103038 104355 104061
103032 104013 104334 104010 103017 103919 104205 104104 103075 103567
104296 104089 102999 103822 104143 104121 103177 103295 104256 104119
102984 103711 104180 104114 103071 103434 104379 104054 102985 104369
103998 102975 104060 104349 103903 102950 103946 104216 104115 102974
103581 104141 103170 104310 104168 104136 104018 102919 103064 103294
103839 104197 104121 102968 103440 104271 104136 102894 103721 104384
104180 102915 104375 104170 104157 103992 102904 103053 103162 104494
104231 104170 102878 103587 104357 103907 102875 104750 104193 104147
102961 103294 104322 104011 102841 104992 104220 104170 102872 103443
104289 104167 102812 105234 104197 103041 104213 104177 102951 103156
104385 104378 102828 104251 104228 102795 105458 104377 104221 104193
104193 102819 102867 103294 104554 104364 104080 102795 104776 104337
104144 102766 105006 104250 104229 102788 105654 104236 104226 102938
103032 104313 104284 104219 104240 102742 102859 103155 105236 104236
104238 102784 105825 104281 104279 102727 105454 104384 104508 102731
104379 104381 102726 104629 104371 104235 104293 102714 102928 104818
104266 104249 102848 103029 104267 104273 102718 105647 104354 104321
102699 105027 104299 104256 102778 105968 104341 104346 102685 105241
104235 104269 102712 105821 104219 104260 102838 102923 104324 104342
102674 105448 104394 104253 104271 104528 102630 102768 106099 104391
104444 102631 104663 104386 104407 102633 104848 104308 104316 102662
105637 104214 104280 102702 105969 104380 104413 102635 105052 104375
104407 102635 105257 104283 102834 104188 104281 102759 106225 104292
104301 102648 105815 104372 104177 104290 104378 102628 102690 106106
105453 104412 104600 102535 104408 104533 102541 104712 104403 104493
102555 104885 104251 104296 102631 105978 104364 104342 102613 105638
104400 104252 104291 104480 102571 102754 106362 105082 104174 104293
102680 106236 104395 104456 102582 105280 104365 104323 102591 105822
104205 104294 102613 106129 104398 104412 102580 105470 104238 106509
104335 104317 102564 105997 104439 104551 102450 104214 104296 102675
106373 104434 104539 102458 104741 104378 104368 102563 105652 104426
104541 102478 104906 104225 104276 102599 106266 104421 104539 102501
105096 104401 104346 102535 105838 104413 104504 102517 105292 104260
104319 102538 106161 104217 104255 106516 106659 104422 104458 102519
105479 104252 104276 102593 106400 104362 104341 102502 106019 104465
104622 102377 104460 104251 104295 104606 102385 102519 104865 106303
104389 104410 102505 105660 104448 104639 102403 104925 104434 104641
102425 104964 104261 104343 102471 106189 104242 106661 104434 104381
102479 105846 104417 104593 102441 105011 104256 104264 106798 106531
104264 104272 102512 106429 104411 104532 102446 105060 104373 104366
102447 106029 104266 104325 102450 106331 104382 104477 102438 105115
104490 104793 102315 104483 104747 102320 104878 104471 104272 104254
104751 102332 104929 106796 106663 104264 104275 106920 106546 104447
104258 104361 104742 102347 102418 104969 106200 104374 104430 102420
105169 104276 104289 102441 106451 104425 104694 102359 105015 104402
104622 102366 105064 104304 104391 102399 105229 104293 104338 102398
106342 104278 106790 104277 104275 106918 106663 104393 104554 102367
105117 104282 104289 107029 106555 104509 104857 102261 104503 104809
102263 104917 104493 104795 102268 104953 104265 104362 102380 105300
104466 104773 102275 104988 104364 104289 104308 104486 102364 102390
105169 106458 104443 104734 102283 105030 104284 104291 106911 106782
104304 104342 102367 105383 104303 104293 104299 104427 102359 105226
107028 106661 104420 104678 102293 105077 104297 104317 107135 106557
104430 104612 102303 105125 104524 104897 102210 104302 104376 102355
105294 104518 104856 102211 104939 104299 104333 102362 105467 104510
104823 102212 104970 104411 104540 102315 105169 104298 106903 104478
104786 102215 105004 104300 104306 107025 106774 104453 104743 102223
105047 104303 104325 107135 106659 104314 104357 102353 105376 104334
104475 102327 105217 104412 104691 102236 105092 104315 104340 105535
107241 104422 104636 102255 105133 104322 104312 104311 104424 102339
105278 107021 106895 104318 104364 102351 105459 104535 104900 102163
104528 104856 102164 104942 104312 104328 107135 106770 104515 104816
102166 104975 104380 104573 102279 105166 104479 104323 104347 104770
102171 105577 105014 107241 104433 104724 102183 105060 104330 104404
102347 105354 104309 104335 104365 104514 102303 105528 105201 107348
104380 104676 102202 105104 104324 107018 104325 104331 107136 106893
104349 104333 104356 104630 102227 105596 105137 107242 104335 104398
102349 105437 104331 104464 102325 105251 104546 104880 102119 104538
104345 104370 104832 102121 105572 104932 107347 104519 104321 104585
104793 102128 102257 105159 104971 104482 104743 102141 105017 104333
104437 102341 105322 104351 104389 105509 107448 104429 104694 102160
105067 104339 104342 107137 107017 104320 104545 102287 105180 104343
104360 105605 107243 104383 104646 102186 105111 104355 104381 105592
107345 104345 104423 102345 105405 104341 104342 104507 104606 102216
102314 105218 105138 104362 104393 105557 107446 104557 104835 102081
104548 104787 102086 104904 104330 104574 102249 105147 104357 107137
104525 104357 104368 104756 102099 105615 104957 107245 104344 104479
102332 105284 104488 104360 104417 104706 102120 105483 105012 107537
104363 104387 105601 107343 104449 104654 102148 105068 104352 104552
102279 105156 104373 104403 105581 107441 104410 104605 102181 105113
104359 104463 102337 105370 104357 104532 102304 105185 104374 104426
105539 107535 104394 104566 102216 105135 104373 104382 105631 107245
104373 104394 105612 107342 104387 104379 104412 104541 102249 105592
105137 107435 104561 104725 102067 104553 104707 102072 104893 104372
104459 105457 107610 104360 104514 102321 105248 104529 104706 102088
104954 104495 104669 102114 105011 104383 104438 105568 107529 104380
104534 102278 105137 104462 104619 102146 105069 104396 105653 104372
104385 104407 104503 102325 105629 105340 107341 104430 104565 102182
105113 104388 104468 105523 107609 104391 104425 105603 107430 104378
104535 102300 105161 104417 104520 102218 105134 104391 104456 105581
107522 104387 104500 105436 107664 104411 104491 102251 105133 104556
104642 104377 104537 102314 105223 104552 104662 104535 104394 104481
104674 105559 107606 104512 104408 104422 104651 105652 105678 104403
104440 105621 107428 104406 104487 102279 105130 104484 104607 104389
104402 104475 104540 102317 105591 105319 107516 104397 104511 105512
107666 104461 104549 104404 104502 102300 105152 104402 104499 105573
107602 104455 104492 104406 104544 105423 107692 104433 105679 104419
104455 105707 105647 104445 104409 104525 104449 105555 107668 104403
104527 102313 105214 104547 104632 104548 104641 104413 104493 105609
107514 104537 104650 104525 104640 104434 104410 104512 104434 105580
107599 104502 104607 104413 104554 105507 107695 104409 104550 102316
105311 104484 104421 104541 104553 105569 107671 104430 104447 104441
104464 105710 105679 104482 104489 104429 104503 105743 105639 104423
104570 105418 107695 104424 104565 105554 107703 104418 104537 105596
107597 104427 104484 104468 104431 104544 104593 104425 104548 105572
107673 104546 104604 104540 104623 104456 104397 104534 104629 104437
104589 105505 107700 104428 104527 104523 104472 104609 105716 104437
104573 105568 107713 104451 104508 105748 105677 104437 104558 105787
105628 104510 104562 104450 104396 104435 104572 105585 107673 104435
104568 104504 104496 104444 104602 105553 107709 104446 104427 104444
104587 105568 107720 104486 104428 104550 104483 104516 104590 105758
105722 104550 104599 104450 104461 104561 104602 105793 105674 104538
104616 104472 104378 104445 104478 104537 104454 104608 104625 105567
107722 104455 104603 105833 105618 104535 104610 104467 104456 104613
104361 105578 107723 104536 104565 104467 104626 104447 104535 104526
104498 104468 104625 105566 107732 104525 105771 104495 104568 105804
105728 104462 104381 104478 104613 105838 105669 104494 104424 104457
104587 104557 104475 104642 104601 105868 105610 104480 104646 104552
104606 104528 104615 104481 104460 104430 104367 104528 104616 104480
104657 105574 107735 104531 104599 104474 104341 104557 104476 104627
104554 104536 104579 105819 105784 104460 104494 104508 104624 105849
105731 104493 104669 104537 104487 104496 104662 105873 105665 104469
104353 104481 104412 104492 104686 105881 105606 104465 104560 104491
104662 104564 104642 104554 104640 104465 104398 104473 104354 104518
104503 104696 104633 104594 105837 104513 104547 104642 104616 105864
105795 104521 104683 105881 105733 104505 104587 104478 104616 104466
104329 104464 104505 104695 104464 104547 104539 104511 104714 105885
105662 104515 104472 104466 104515 104725 104341 104493 104665 104449
104465 104537 104400 104605 104662 105881 105852 104557 104704 105894
105802 104515 104725 104461 104385 104559 104680 104544 104470 104347
104671 104535 104738 105892 105732 104500 104647 104472 104611 104533
104753 104473 104605 104449 104568 104507 104707 104460 104328 104457
104453 104430 104517 104527 104754 104677 105897 104414 104617 104723
104457 105908 105862 104461 104344 104485 104569 104756 104665 105903
105803 104454 104531 104429 104397 104519 104739 104553 104773 104454
104390 104456 104356 104540 104705 104542 104776 104522 104691 104481
104656 104460 104607 104499 104713 104446 104606 104453 104451 104459
104345 104429 104687 104736 104551 105923 105908 104536 104766 104629
104766 105916 105864 104398 104500 104588 104784 104454 104364 104471
104673 104404 104454 104565 104791 104446 104538 104515 104748 104440
104414 104447 104409 104554 104786 104737 105933 104441 104389 104694
104767 105929 105910 104490 104725 104513 104689 104499 104450 104616
104675 104645 104784 104464 104636 104442 104533 104773 104584 104445
104474 104442 104608 104794 104386 104431 104531 104438 104491 104583
104797 104461 104684 104513 104762 104444 104404 104445 104465 104441
104549 104732 104759 105939 105935 104557 104792 104695 104775 104441
104451 104441 104441 104655 104788 104483 104737 104446 104623 104442
104446 104537 104786 104477 104624 104798 104636 104468 104624 104441
104594 104440 104495 104433 104553 104441 104450 104434 104589 104803
104517 104457 104688 104510 104773 104426 104747 104497 105940 104723
104762 104442 104461 104439 104687 104775 104557 104564 104804 104425
104495 104651 104790 104426 104503 104440 104483 104479 104738 104618
104804 104539 104797 104444 104621 104429 104511 104443 104560 104442
104555 104434 104591 104813 104540 104440 104517 104733 104747 104436
104523 104707 104758 104434 104518 104441 104512 104509 104671 104775
104774 104455 104679 104434 104517 104570 104812 104635 104797 104435
104440 104562 104521 104428 104535 104606 104813 104427 104557 104481
104725 104433 104523 104539 104795 104731 104444 104612 104715 104741
104429 104570 104686 104758 104591 104817 104413 104496 104434 104538
104416 104496 104647 104783 104424 104498 104431 104570 104427 104506
104510 104756 104454 104659 104613 104807 104426 104521 104564 104803
104423 104546 104435 104565 104429 104561 104590 104816 104419 104575
104712 104723 104692 104738 104474 104697 104540 104771 104424 104550
104659 104766 104425 104598 104439 104602 104573 104804 104621 104796
104429 104605 104423 104553 104395 104471 104402 104591 104810 104476
104498 104723 104414 104491 104426 104593 104444 104557 104774 104639
104419 104515 104702 104418 104688 104716 104545 104424 104569 104570
104798 104662 104744 104421 104572 104414 104578 104626 104779 104411
104523 104734 104604 104450 104670 104557 104768 104412 104557 104593
104800 104430 104595 104415 104615 104568 104791 104419 104608 104406
104556 104674 104690 104475 104690 104535 104653 104716 104731 104441
104625 104389 104503 104399 104509 104416 104586 104414 104622 104756
104527 104418 104553 104554 104759 104411 104589 104785 104582 104406
104570 104410 104562 104403 104606 104504 104696 104444 104651 104563
104782 104537 104720 104399 104617 104415 104595 104398 104548 104659
104401 104639 104684 104611 104546 104749 104608 104724 104458 104666
104406 104590 104515 104574 104762 104690 104388 104553 104434 104622
104535 104707 104547 104769 104386 104585 104398 104588 104407 104565
104413 104599 104416 104614 104379 104575 104408 104626 104530 104739
104483 104670 104405 104548 104442 104644 104396 104522 104623 104649
104677 104630 104592 104687 104389 104620 104553 104729 104384 104521
104693 104603 104396 104548 104389 104521 104748 104597 104498 104664
104449 104657 104394 104570 104381 104565 104503 104727 104515 104660
104395 104630 104397 104550 104386 104693 104395 104611 104693 104578
104647 104494 104682 104408 104691 104536 104691 104410 104364 104593
104687 104470 104661 104506 104651 104396 104676 104404 104493 104721
104649 104401 104546 104381 104656 104493 104644 104468 104713 104362
104622 104376 104628 104398 104561 104488 104657 104373 104596 104458
104673 104420 104660 104492 104634 104568 104606 104390 104589 104524
104651 104378 104571 104366 104644 104473 104688 104456 104632 104385
104561 104390 104797 104392 104433 104695 104793 104445 104664 104392
104779 104490 104647 104376 104620 104390 104757 104374 104659 104460
104618 104378 104728 104393 104416 104666 104570 104367 104693 104368
104646 104561 104364 104657 104413 104625 104517 104607 104406 104594
104469 104663 104463 104653 104467 104633 104391 104668 104363 104625
104410 104673 104416 104605 104366 104663 104409 104625 104369 104607
104378 104659 104469 104656 104414 104672 104372 104605 104402 104874
104394 104867 104393 104653 104368 104622 104425 104617 104376 104847
104364 104672 104363 104818 104513 104560 104382 104620 104361 104783
104462 104610 104369 104596 104401 104646 104355 104747 104382 104672
104443 104672 104342 104713 104440 104351 104648 104645 104392 104645
104376 104678 104343 104376 104602 104689 104328 104622 104375 104683
104397 104669 104354 104678 104444 104324 104593 104668 104511 104394
104462 104561 104681 104393 104631 104353 104680 104404 104608 104398
104688 104422 104913 104405 104907 104372 104688 104365 104890 104342
104629 104343 104329 104589 104865 104354 104692 104347 104838 104301
104618 104399 104699 104342 104811 104413 104683 104415 104661 104356
104706 104373 104692 104331 104285 104593 104790 104342 104614 104339
104461 104510 104776 104411 104409 104559 104705 104370 104717 104285
104581 104347 104596 104360 104770 104415 104682 104369 104649 104379
104695 104291 104604 104356 104770 104391 104724 104412 104294 104598
104709 104437 104259 104589 104927 104416 104924 104364 104916 104334
104903 104350 104770 104344 104890 104393 104678 104391 104699 104417
104249 104576 104727 104459 104337 104315 104635 104879 104410 104507
104387 104714 104355 104551 104353 104769 104331 104871 104294 104576
104252 104584 104336 104472 104731 104867 104365 104247 104577 104764
104388 104702 104352 104671 104378 104720 104341 104863 104266 104618
104224 104570 104390 104484 104737 104759 104343 104856 104407 104455
104432 104932 104410 104359 104502 104933 104360 104217 104574 104933
104372 104701 104334 104349 104845 104933 104382 104301 104537 104726
104298 104660 104342 104424 104756 104935 104247 104552 104421 104745
104324 104937 104352 104828 104222 104601 104319 104940 104210 104558
104508 104759 104372 104729 104335 104942 104340 104697 104360 104810
104387 104753 104191 104565 104244 104646 104402 104329 104938 104355
104453 104305 104494 104524 104767 104377 104795 104251 104521 104328
104927 104186 104588 104359 104729 104411 104944 104379 104205 104538
104758 104393 104288 104691 104946 104355 104952 104343 104908 104342
104961 104405 104788 104352 104443 104777 104970 104195 104632 104173
104555 104337 104979 104344 104882 104333 104988 104350 104401 104330
104727 104362 104760 104304 104451 104447 104157 104579 104789 104255
104487 104229 104684 104337 104992 104349 104407 104785 104857 104207
104514 104338 104989 104154 104620 104472 104795 104353 104836 104164
104541 104337 104350 104758 104977 104280 104726 104383 104787 104393
104962 104381 104135 104573 104964 104171 104676 104363 104972 104338
104958 104381 104822 104350 104370 104983 104447 104301 104405 104802
104386 104257 104452 104994 104392 104121 104614 105004 104212 104489
104335 104933 104318 104756 104359 104784 104391 104218 104725 105013
104392 104816 104163 104525 104418 104805 104358 104341 104907 105017
104121 104669 104121 104567 104338 105016 104445 104814 104345 104778
104346 104269 104757 104882 104302 104357 104095 104612 104331 104258
104413 105009 104386 104802 104152 104725 104218 104462 104393 104980
104392 104982 104319 104996 104372 104461 104172 104506 104812 104861
104389 104990 104409 104083 104665 104999 104439 105009 104306 104773
104120 104556 104206 104761 104316 104351 104793 104978 104446 105017
104382 104842 104426 105023 104406 104806 104094 104723 104079 104610
104325 104955 104385 104310 105027 104260 104370 104222 104429 104257
104774 104361 104437 104055 104665 104825 105029 104337 104782 104186
104484 104332 104930 104138 104767 104380 104796 104134 104541 104334
105027 104050 104721 104459 104807 104343 104078 104603 104900 104398
104988 104317 105021 104404 104990 104412 104997 104296 104774 104405
105006 104197 104781 104341 104782 104439 105014 104265 104324 104317
104039 104662 105010 104077 104769 104224 104389 104472 105020 104341
104866 104407 104196 104453 104789 104449 105026 104157 104518 104317
104992 104020 104718 104415 105030 104247 104773 104326 104769 104332
104830 104132 104097 104587 104789 104388 105032 104324 104388 104772
104966 104028 104767 104040 104654 104351 105032 104275 104382 104795
104224 104342 104323 104929 104294 104196 104412 104760 104329 105029
104388 104192 104779 104396 104412 104004 104712 104352 104757 104394
104174 104484 104072 104794 104393 104328 105022 104128 104560 104428
104332 104883 104398 104765 103995 104760 104435 104062 104635 104327
105006 104251 104758 104414 104333 104132 104788 104745 104297 104832
104006 104698 104383 104362 104020 104225 104289 104792 104742 104327
104188 104363 104980 104175 104440 104346 104152 104521 103978 104748
104341 104783 104197 104762 104303 104739 104324 104940 104329 104076
104793 104373 104341 104729 104386 104098 104603 104408 104419 104427
103983 104783 104325 104029 104673 104319 104360 104745 104889 104441
104231 104262 104737 104460 104177 104305 104142 104768 104323 104324