# vtk DataFile Version 2.0
sampleSurface
ASCII
DATASET POLYDATA
POINTS 16001 float
0 0 0.0005 0 0.001 0.0005 0.001 0 0.0005 -0.001 0
0.0005 0.001 0.001 0.0005 -0.001 0.001 0.0005 0.002 0 0.0005
0 0.002 0.0005 -0.002 0 0.0005 0.002 0.001 0.0005 0.001
0.002 0.0005 -0.002 0.001 0.0005 -0.001 0.002 0.0005 0.002 0.002
0.0005 -0.002 0.002 0.0005 0.003 0 0.0005 0 0.003 0.0005
-0.003 0 0.0005 0.003 0.001 0.0005 0.001 0.003 0.0005 -0.003
0.001 0.0005 -0.001 0.003 0.0005 0.003 0.002 0.0005 0.002 0.003
0.0005 -0.003 0.002 0.0005 -0.002 0.003 0.0005 0.004 0 0.0005
0 0.004 0.0005 -0.004 0 0.0005 0.004 0.001 0.0005 0.001
0.004 0.0005 -0.004 0.001 0.0005 -0.001 0.004 0.0005 0.003 0.003
0.0005 -0.003 0.003 0.0005 0.004 0.002 0.0005 0.002 0.004 0.0005
-0.004 0.002 0.0005 -0.002 0.004 0.0005 0.004 0.003 0.0005 0.003
0.004 0.0005 -0.004 0.003 0.0005 -0.003 0.004 0.0005 0.005 0
0.0005 0 0.005 0.0005 -0.005 0 0.0005 0.005 0.001 0.0005
0.001 0.005 0.0005 -0.005 0.001 0.0005 -0.001 0.005 0.0005 0.005
0.002 0.0005 0.002 0.005 0.0005 -0.005 0.002 0.0005 -0.002 0.005
0.0005 0.004 0.004 0.0005 -0.004 0.004 0.0005 0.005 0.003 0.0005
0.003 0.005 0.0005 -0.005 0.003 0.0005 -0.003 0.005 0.0005 0.006
0 0.0005 0 0.006 0.0005 -0.006 0 0.0005 0.006 0.001
0.0005 0.001 0.006 0.0005 -0.006 0.001 0.0005 -0.001 0.006 0.0005
0.006 0.002 0.0005 0.002 0.006 0.0005 -0.006 0.002 0.0005 -0.002
0.006 0.0005 0.005 0.004 0.0005 0.004 0.005 0.0005 -0.005 0.004
0.0005 -0.004 0.005 0.0005 0.006 0.003 0.0005 0.003 0.006 0.0005
-0.006 0.003 0.0005 -0.003 0.006 0.0005 0.007 0 0.0005 0
0.007 0.0005 -0.007 0 0.0005 0.007 0.001 0.0005 0.005 0.005
0.0005 0.001 0.007 0.0005 -0.007 0.001 0.0005 -0.005 0.005 0.0005
-0.001 0.007 0.0005 0.006 0.004 0.0005 0.004 0.006 0.0005 -0.006
0.004 0.0005 -0.004 0.006 0.0005 0.007 0.002 0.0005 0.002 0.007
0.0005 -0.007 0.002 0.0005 -0.002 0.007 0.0005 0.007 0.003 0.0005
0.003 0.007 0.0005 -0.007 0.003 0.0005 -0.003 0.007 0.0005 0.006
0.005 0.0005 0.005 0.006 0.0005 -0.006 0.005 0.0005 -0.005 0.006
0.0005 0.008 0 0.0005 0 0.008 0.0005 -0.008 0 0.0005
0.008 0.001 0.0005 0.001 0.008 0.0005 -0.008 0.001 0.0005 -0.001
0.008 0.0005 0.007 0.004 0.0005 0.004 0.007 0.0005 -0.007 0.004
0.0005 -0.004 0.007 0.0005 0.008 0.002 0.0005 0.002 0.008 0.0005
-0.008 0.002 0.0005 -0.002 0.008 0.0005 0.006 0.006 0.0005 -0.006
0.006 0.0005 0.008 0.003 0.0005 0.003 0.008 0.0005 -0.008 0.003
0.0005 -0.003 0.008 0.0005 0.007 0.005 0.0005 0.005 0.007 0.0005
-0.007 0.005 0.0005 -0.005 0.007 0.0005 0.008 0.004 0.0005 0.004
0.008 0.0005 -0.008 0.004 0.0005 -0.004 0.008 0.0005 0.009 0
0.0005 0 0.009 0.0005 -0.009 0 0.0005 0.009 0.001 0.0005
0.001 0.009 0.0005 -0.009 0.001 0.0005 -0.001 0.009 0.0005 0.009
0.002 0.0005 0.002 0.009 0.0005 -0.009 0.002 0.0005 -0.002 0.009
0.0005 0.007 0.006 0.0005 0.006 0.007 0.0005 -0.007 0.006 0.0005
-0.006 0.007 0.0005 0.008 0.005 0.0005 0.005 0.008 0.0005 -0.008
0.005 0.0005 -0.005 0.008 0.0005 0.009 0.003 0.0005 0.003 0.009
0.0005 -0.009 0.003 0.0005 -0.003 0.009 0.0005 0.009 0.004 0.0005
0.004 0.009 0.0005 -0.009 0.004 0.0005 -0.004 0.009 0.0005 0.007
0.007 0.0005 -0.007 0.007 0.0005 0.008 0.006 0.0005 0.006 0.008
0.0005 -0.008 0.006 0.0005 -0.006 0.008 0.0005 0.01 0 0.0005
0 0.01 0.0005 -0.01 0 0.0005 0.01 0.001 0.0005 0.001
0.01 0.0005 -0.01 0.001 0.0005 -0.001 0.01 0.0005 0.01 0.002
0.0005 0.002 0.01 0.0005 -0.01 0.002 0.0005 -0.002 0.01 0.0005
0.009 0.005 0.0005 0.005 0.009 0.0005 -0.009 0.005 0.0005 -0.005
0.009 0.0005 0.01 0.003 0.0005 0.003 0.01 0.0005 -0.01 0.003
0.0005 -0.003 0.01 0.0005 0.008 0.007 0.0005 0.007 0.008 0.0005
-0.008 0.007 0.0005 -0.007 0.008 0.0005 0.01 0.004 0.0005 0.004
0.01 0.0005 -0.01 0.004 0.0005 -0.004 0.01 0.0005 0.009 0.006
0.0005 0.006 0.009 0.0005 -0.009 0.006 0.0005 -0.006 0.009 0.0005
0.011 0 0.0005 0 0.011 0.0005 -0.011 0 0.0005 0.011
0.001 0.0005 0.001 0.011 0.0005 -0.011 0.001 0.0005 -0.001 0.011
0.0005 0.011 0.002 0.0005 0.002 0.011 0.0005 -0.011 0.002 0.0005
-0.002 0.011 0.0005 0.01 0.005 0.0005 0.005 0.01 0.0005 -0.01
0.005 0.0005 -0.005 0.01 0.0005 0.008 0.008 0.0005 -0.008 0.008
0.0005 0.011 0.003 0.0005 0.009 0.007 0.0005 0.007 0.009 0.0005
0.003 0.011 0.0005 -0.011 0.003 0.0005 -0.009 0.007 0.0005 -0.007
0.009 0.0005 -0.003 0.011 0.0005 0.01 0.006 0.0005 0.006 0.01
0.0005 -0.01 0.006 0.0005 -0.006 0.01 0.0005 0.011 0.004 0.0005
0.004 0.011 0.0005 -0.011 0.004 0.0005 -0.004 0.011 0.0005 0.012
0 0.0005 0 0.012 0.0005 -0.012 0 0.0005 0.012 0.001
0.0005 0.009 0.008 0.0005 0.008 0.009 0.0005 0.001 0.012 0.0005
-0.012 0.001 0.0005 -0.009 0.008 0.0005 -0.008 0.009 0.0005 -0.001
0.012 0.0005 0.011 0.005 0.0005 0.005 0.011 0.0005 -0.011 0.005
0.0005 -0.005 0.011 0.0005 0.012 0.002 0.0005 0.002 0.012 0.0005
-0.012 0.002 0.0005 -0.002 0.012 0.0005 0.01 0.007 0.0005 0.007
0.01 0.0005 -0.01 0.007 0.0005 -0.007 0.01 0.0005 0.012 0.003
0.0005 0.003 0.012 0.0005 -0.012 0.003 0.0005 -0.003 0.012 0.0005
0.011 0.006 0.0005 0.006 0.011 0.0005 -0.011 0.006 0.0005 -0.006
0.011 0.0005 0.012 0.004 0.0005 0.004 0.012 0.0005 -0.012 0.004
0.0005 -0.004 0.012 0.0005 0.009 0.009 0.0005 -0.009 0.009 0.0005
0.01 0.008 0.0005 0.008 0.01 0.0005 -0.01 0.008 0.0005 -0.008
0.01 0.0005 0.013 0 0.0005 0 0.013 0.0005 -0.013 0
0.0005 0.012 0.005 0.0005 0.005 0.012 0.0005 -0.012 0.005 0.0005
-0.005 0.012 0.0005 0.013 0.001 0.0005 0.011 0.007 0.0005 0.007
0.011 0.0005 0.001 0.013 0.0005 -0.013 0.001 0.0005 -0.011 0.007
0.0005 -0.007 0.011 0.0005 -0.001 0.013 0.0005 0.013 0.002 0.0005
0.002 0.013 0.0005 -0.013 0.002 0.0005 -0.002 0.013 0.0005 0.013
0.003 0.0005 0.003 0.013 0.0005 -0.013 0.003 0.0005 -0.003 0.013
0.0005 0.012 0.006 0.0005 0.006 0.012 0.0005 -0.012 0.006 0.0005
-0.006 0.012 0.0005 0.01 0.009 0.0005 0.009 0.01 0.0005 -0.01
0.009 0.0005 -0.009 0.01 0.0005 0.013 0.004 0.0005 0.011 0.008
0.0005 0.008 0.011 0.0005 0.004 0.013 0.0005 -0.013 0.004 0.0005
-0.011 0.008 0.0005 -0.008 0.011 0.0005 -0.004 0.013 0.0005 0.012
0.007 0.0005 0.007 0.012 0.0005 -0.012 0.007 0.0005 -0.007 0.012
0.0005 0.013 0.005 0.0005 0.005 0.013 0.0005 -0.013 0.005 0.0005
-0.005 0.013 0.0005 0.014 0 0.0005 0 0.014 0.0005 -0.014
0 0.0005 0.014 0.001 0.0005 0.001 0.014 0.0005 -0.014 0.001
0.0005 -0.001 0.014 0.0005 0.014 0.002 0.0005 0.01 0.01 0.0005
0.002 0.014 0.0005 -0.014 0.002 0.0005 -0.01 0.01 0.0005 -0.002
0.014 0.0005 0.011 0.009 0.0005 0.009 0.011 0.0005 -0.011 0.009
0.0005 -0.009 0.011 0.0005 0.013 0.006 0.0005 0.006 0.013 0.0005
-0.013 0.006 0.0005 -0.006 0.013 0.0005 0.014 0.003 0.0005 0.003
0.014 0.0005 -0.014 0.003 0.0005 -0.003 0.014 0.0005 0.012 0.008
0.0005 0.008 0.012 0.0005 -0.012 0.008 0.0005 -0.008 0.012 0.0005
0.014 0.004 0.0005 0.004 0.014 0.0005 -0.014 0.004 0.0005 -0.004
0.014 0.0005 0.013 0.007 0.0005 0.007 0.013 0.0005 -0.013 0.007
0.0005 -0.007 0.013 0.0005 0.011 0.01 0.0005 0.01 0.011 0.0005
-0.011 0.01 0.0005 -0.01 0.011 0.0005 0.014 0.005 0.0005 0.005
0.014 0.0005 -0.014 0.005 0.0005 -0.005 0.014 0.0005 0.015 0
0.0005 0.012 0.009 0.0005 0.009 0.012 0.0005 0 0.015 0.0005
-0.015 0 0.0005 -0.012 0.009 0.0005 -0.009 0.012 0.0005 0.015
0.001 0.0005 0.001 0.015 0.0005 -0.015 0.001 0.0005 -0.001 0.015
0.0005 0.015 0.002 0.0005 0.002 0.015 0.0005 -0.015 0.002 0.0005
-0.002 0.015 0.0005 0.014 0.006 0.0005 0.006 0.014 0.0005 -0.014
0.006 0.0005 -0.006 0.014 0.0005 0.013 0.008 0.0005 0.008 0.013
0.0005 -0.013 0.008 0.0005 -0.008 0.013 0.0005 0.015 0.003 0.0005
0.003 0.015 0.0005 -0.015 0.003 0.0005 -0.003 0.015 0.0005 0.015
0.004 0.0005 0.004 0.015 0.0005 -0.015 0.004 0.0005 -0.004 0.015
0.0005 0.011 0.011 0.0005 -0.011 0.011 0.0005 0.012 0.01 0.0005
0.01 0.012 0.0005 -0.012 0.01 0.0005 -0.01 0.012 0.0005 0.014
0.007 0.0005 0.007 0.014 0.0005 -0.014 0.007 0.0005 -0.007 0.014
0.0005 0.015 0.005 0.0005 0.013 0.009 0.0005 0.009 0.013 0.0005
0.005 0.015 0.0005 -0.015 0.005 0.0005 -0.013 0.009 0.0005 -0.009
0.013 0.0005 -0.005 0.015 0.0005 0.016 0 0.0005 0 0.016
0.0005 -0.016 0 0.0005 0.016 0.001 0.0005 0.001 0.016 0.0005
-0.016 0.001 0.0005 -0.001 0.016 0.0005 0.016 0.002 0.0005 0.002
0.016 0.0005 -0.016 0.002 0.0005 -0.002 0.016 0.0005 0.014 0.008
0.0005 0.008 0.014 0.0005 -0.014 0.008 0.0005 -0.008 0.014 0.0005
0.015 0.006 0.0005 0.006 0.015 0.0005 -0.015 0.006 0.0005 -0.006
0.015 0.0005 0.016 0.003 0.0005 0.012 0.011 0.0005 0.011 0.012
0.0005 0.003 0.016 0.0005 -0.016 0.003 0.0005 -0.012 0.011 0.0005
-0.011 0.012 0.0005 -0.003 0.016 0.0005 0.013 0.01 0.0005 0.01
0.013 0.0005 -0.013 0.01 0.0005 -0.01 0.013 0.0005 0.016 0.004
0.0005 0.004 0.016 0.0005 -0.016 0.004 0.0005 -0.004 0.016 0.0005
0.015 0.007 0.0005 0.007 0.015 0.0005 -0.015 0.007 0.0005 -0.007
0.015 0.0005 0.014 0.009 0.0005 0.009 0.014 0.0005 -0.014 0.009
0.0005 -0.009 0.014 0.0005 0.016 0.005 0.0005 0.005 0.016 0.0005
-0.016 0.005 0.0005 -0.005 0.016 0.0005 0.012 0.012 0.0005 -0.012
0.012 0.0005 0.015 0.008 0.0005 0.008 0.015 0.0005 -0.015 0.008
0.0005 -0.008 0.015 0.0005 0.017 0 0.0005 0 0.017 0.0005
-0.017 0 0.0005 0.013 0.011 0.0005 0.011 0.013 0.0005 -0.013
0.011 0.0005 -0.011 0.013 0.0005 0.017 0.001 0.0005 0.001 0.017
0.0005 -0.017 0.001 0.0005 -0.001 0.017 0.0005 0.016 0.006 0.0005
0.006 0.016 0.0005 -0.016 0.006 0.0005 -0.006 0.016 0.0005 0.017
0.002 0.0005 0.002 0.017 0.0005 -0.017 0.002 0.0005 -0.002 0.017
0.0005 0.014 0.01 0.0005 0.01 0.014 0.0005 -0.014 0.01 0.0005
-0.01 0.014 0.0005 0.017 0.003 0.0005 0.003 0.017 0.0005 -0.017
0.003 0.0005 -0.003 0.017 0.0005 0.016 0.007 0.0005 0.007 0.016
0.0005 -0.016 0.007 0.0005 -0.007 0.016 0.0005 0.017 0.004 0.0005
0.004 0.017 0.0005 -0.017 0.004 0.0005 -0.004 0.017 0.0005 0.015
0.009 0.0005 0.009 0.015 0.0005 -0.015 0.009 0.0005 -0.009 0.015
0.0005 0.013 0.012 0.0005 0.012 0.013 0.0005 -0.012 0.013 0.0005
-0.013 0.012 0.0005 0.017 0.005 0.0005 0.005 0.017 0.0005 -0.017
0.005 0.0005 -0.005 0.017 0.0005 0.014 0.011 0.0005 0.011 0.014
0.0005 -0.014 0.011 0.0005 -0.011 0.014 0.0005 0.016 0.008 0.0005
0.008 0.016 0.0005 -0.016 0.008 0.0005 -0.008 0.016 0.0005 0.018
[...]
POINT_DATA 16001
FIELD attributes 17
p 1 16001 float
103568 103565 103518 103621 103515 103619 103470 103559 103679 103466 103508
103677 103614 103458 103671 103423 103547 103741 103419 103494 103739
103604 103410 103443 103733 103662 103375 103532 103807 103371 103477
103804 103591 103394 103724 103361 103426 103798 103651 103345 103376
103789 103714 103324 103508 103874 103320 103453 103872 103572 103310
103404 103866 103635 103326 103780 103293 103355 103858 103702 103272
103480 103939 103268 103429 103938 103547 103259 103384 103934 103615
103272 103304 103850 103769 103242 103340 103928 103686 103221 103439
104001 103218 103246 103390 104001 103840 103513 103221 103287 103922
103757 103210 103355 103999 103586 103196 103321 103997 103665 103194
103225 103914 103830 103173 103384 104060 103171 103344 104060 103468
103177 103267 103993 103741 103166 103322 104061 103551 103165 103905
103156 103300 104061 103638 103152 103189 103987 103817 103142 103243
104060 103722 103130 103291 104116 103129 103246 104117 103413 103125
103255 104119 103510 103121 103119 103980 103895 103122 103142 104057
103801 103119 103248 104121 103609 103109 103190 104122 103701 103078
103971 103096 103053 104052 103882 103090 103145 104173 103090 103108
104173 103319 103089 103174 104175 103469 103092 103080 104121 103785
103087 103181 104177 103579 103061 103016 104045 103960 103081 103110
104178 103683 103069 102970 104118 103869 103056 102792 104230 103056
102877 104230 103259 103058 103044 104231 103451 103069 103020 104178
103770 103016 104037 103057 103037 102927 103063 104232 104113 103949
103563 103050 102903 104177 103859 103053 103019 104232 103676 103028
102546 104286 103029 103001 102955 102823 104286 104107 104028 102508
103042 102961 104232 103764 103031 102947 104286 102298 103024 102859
104174 103941 103032 102966 104285 102103 103025 102870 104231 103855
103030 102964 104284 101925 102958 104101 102993 102898 104170 104022
103006 102649 104342 103021 102938 104283 101754 103006 103000 102833
102793 104341 104229 103937 102456 103007 102865 104340 102265 103006
102897 104338 102087 103006 102875 104282 101591 102955 102916 104166
104096 103002 102973 102860 102909 104335 104227 104020 101915 102984
102837 104280 101430 102991 102903 104333 101749 102986 102533 104393
102986 102647 104393 102398 102985 102922 102745 104391 104164 102231
102942 102884 104225 104094 102974 102863 104331 101588 102983 102804
104388 102065 102964 102848 104279 101272 102977 102832 104384 101901
102949 102831 104330 101428 102917 102901 104224 104162 102965 102835
104381 101740 102965 102937 102868 102495 104439 104279 101116 102964
102596 104439 102357 102961 102670 104436 102204 102946 102822 104378
101581 102934 102835 104329 101271 102957 102736 104433 102045 102951
102772 104430 101887 102904 104223 102913 102883 104278 100966 102925
102812 104377 101424 102938 102915 102851 102782 104426 104329 101116
101729 102943 102437 104479 102942 102526 104478 102318 102937 102602
104476 102176 102912 102821 104377 101269 102918 102782 104424 101574
102931 102903 102888 102670 104474 104278 100822 102028 102897 102864
104329 100966 102923 102706 104471 101875 102895 102789 104423 101419
102896 102830 104377 101116 102910 102725 104468 101721 102890 100689
102879 102800 104423 101267 102924 102429 104512 102893 102865 104329
100823 102922 102508 104511 102313 102890 102735 104466 101567 102916
102567 104510 102174 102883 102837 104378 100967 102909 102624 104509
102026 102852 102750 104465 101414 102900 102654 104507 101874 102866
102807 104423 101115 102880 102867 100689 100563 102886 102676 104506
101719 102874 102832 104378 100824 102826 102766 104465 101265 102905
102483 104539 102903 102855 102809 102529 104539 104424 102464 100968
102864 102697 104505 101565 102897 102563 104539 102429 102887 102591
104538 102396 102824 102773 104466 101115 102857 100564 102829 102722
104504 101412 102874 102609 104538 102367 102864 102824 100448 100689
102842 102798 104424 100825 102854 102633 104538 102337 102800 102744
104505 101264 102813 102776 104467 100969 102832 102662 104538 102309
102887 102489 104563 102886 102522 104564 102454 102881 102845 102819
102549 104564 102424 100449 100564 102836 102787 100342 100690 102872
102789 102753 102568 104564 104505 102394 101115 102805 102694 104539
102281 102805 102764 104467 100826 102858 102585 104565 102366 102839
102613 104566 102337 102777 102721 104539 102255 102780 102754 104506
100969 102812 100449 102826 102786 100342 100564 102818 102642 104567
102309 102803 102750 100244 100691 102869 102474 104584 102869 102499
104585 102449 102865 102524 104585 102422 102759 102732 104539 102230
102858 102549 104587 102395 102796 102776 102739 102669 104568 104505
102281 100826 102844 102573 104588 102367 102801 102783 100342 100448
102750 102732 104539 102208 102778 102796 102750 102690 104568 102255
100245 100564 102827 102599 104590 102338 102781 102719 100157 100691
102805 102623 104591 102310 102853 102470 104603 102761 102701 104568
102230 102852 102491 104603 102446 102753 102717 104539 102186 102850
102511 104604 102422 102787 102646 104592 102282 102776 100342 102844
102531 104606 102395 102782 102746 100245 100449 102833 102551 104608
102368 102783 102715 100157 100564 102746 102704 104568 102207 102776
102665 104592 102255 102819 102576 104610 102340 102763 102699 102168
100080 102803 102601 104611 102311 102761 102764 102746 102679 104592
102230 100245 100342 102748 102696 104567 102186 102838 102468 104618
102837 102483 104619 102446 102775 102712 100158 100448 102834 102496
104620 102423 102787 102625 104613 102283 102829 102768 102693 102513
104622 102151 102396 100080 102820 102533 104624 102369 102751 102687
104592 102207 102772 102758 102687 102645 104613 102168 102255 100013
102810 102558 104626 102341 102744 100245 102762 102717 100158 100342
102799 102766 102694 102583 104627 102137 102313 100081 102752 102690
104591 102186 102765 102661 104613 102230 102824 102469 104630 102823
102760 102685 102479 104631 102151 102449 100013 102820 102786 102608
102484 104632 104629 102284 102425 102814 102494 104635 102398 102762
102673 104612 102206 102759 102689 102167 99955.3 102807 102510 104637
102371 102756 102724 100158 100245 102776 102630 104629 102256 102759
102701 102124 100081 102799 102536 104638 102342 102759 102690 102137
100014 102760 102681 104611 102185 102791 102776 102650 102565 104639
104629 102230 102314 102761 102691 102151 99955.8 102810 102482 104638
102810 102480 104638 102455 102780 102593 104640 102286 102742 100158
102806 102747 102708 102468 104640 102112 102427 100082 102775 102666
104629 102206 102801 102759 102687 102470 104643 102166 102399 99906.6
102750 102694 102124 100014 102795 102482 104645 102371 102778 102618
104641 102257 102758 102693 102136 99955.7 102788 102510 104647 102343
102771 102679 104628 102184 102784 102640 104642 102230 102754 102691
102150 99906.9 102781 102544 104648 102315 102730 102718 102101 100082
102732 102694 102112 100015 102772 102748 102691 102578 104649 102124
102287 99955.7 102796 102487 104640 102795 102484 104641 102465 102762
102688 102166 99867 102786 102659 104642 102205 102792 102458 104643
102432 102786 102448 104646 102402 102747 102692 102136 99906.2 102769
102607 104649 102258 102777 102454 104648 102372 102713 102091 102779
102723 102695 102674 104641 102102 102184 100014 102766 102483 104650
102344 102748 102693 102149 99867 102735 102684 102112 99955.9 102774
102633 104650 102231 102758 102522 104651 102316 102737 102687 102123
99905.5 102761 102685 102165 99837.4 102751 102563 104652 102287 102782
102491 102778 102655 104651 102206 102781 102478 102779 102737 102693
102458 102135 99865.6 102777 102714 102691 102445 102092 102081 102730
102677 102101 99955.4 102749 102596 104652 102259 102776 102449 102770
102720 102676 102672 104650 102112 102183 99904.9 102742 102692 102149
99837.3 102769 102473 102749 102621 104654 102231 102724 102684 102123
99863.9 102759 102509 102749 102684 102165 99818.4 102685 102082 102713
102668 102071 102091 102752 102725 102692 102547 102135 99835.1 102751
102641 104655 102206 102769 102497 102769 102487 102707 102662 102101
99904.2 102769 102471 102767 102459 102741 102706 102669 102577 102111
99862.6 102767 102460 102728 102690 102148 99818.3 102748 102656 104653
102183 102761 102705 102682 102477 102122 99832.6 102726 102600 102675
102657 102073 102082 102750 102504 102685 102647 102062 102091 102731
102667 102164 99812.6 102708 102688 102134 99815.6 102688 102649 102101
99861.5 102720 102615 102740 102532 102759 102508 102684 102664 102111
99830.7 102759 102500 102758 102486 102728 102556 102753 102474 102712
102671 102148 99812.4 102716 102627 102745 102645 102470 102072 102688
102676 102122 99812.6 102654 102632 102064 102082 102664 102628 102054
102091 102733 102480 102711 102576 102661 102641 102101 99829.2 102705
102637 102722 102499 102693 102667 102134 99809.6 102695 102592 102669
102658 102111 99810.2 102711 102520 102751 102629 102616 102502 102063
102072 102751 102497 102693 102636 102607 102642 102055 102081 102750
102487 102702 102539 102688 102605 102747 102675 102657 102477 102121
99806.4 102641 102616 102046 102091 102743 102473 102689 102646 102635
102555 102101 99808.5 102734 102477 102678 102641 102684 102614 102724
102488 102656 102642 102110 99804 102602 102063 102615 102589 102055
102072 102672 102568 102620 102593 102048 102081 102711 102503 102676
102619 102747 102623 102611 102491 102040 102091 102662 102634 102747
102488 102745 102479 102694 102668 102580 102518 102743 102469 102633
102623 102100 99802.1 102739 102464 102674 102532 102731 102666 102619
102466 102591 102577 102055 102063 102669 102589 102603 102573 102048
102072 102645 102623 102718 102474 102606 102587 102042 102082 102659
102544 102708 102485 102613 102603 102037 102090 102665 102594 102654
102614 102745 102475 102744 102473 102658 102556 102691 102497 102742
102625 102608 102466 102567 102055 102738 102582 102559 102458 102047
102063 102590 102568 102042 102072 102733 102453 102657 102595 102671
102509 102661 102640 102605 102564 102729 102453 102594 102583 102040
102081 102718 102458 102660 102606 102592 102520 102648 102592 102707
102658 102569 102466 102559 102549 102047 102055 102570 102552 102041
102063 102623 102593 102660 102530 102744 102454 102743 102690 102476
102452 102577 102565 102039 102071 102741 102447 102737 102441 102587
102575 102651 102570 102731 102436 102637 102585 102675 102487 102660
102538 102726 102435 102606 102579 102540 102048 102718 102550 102540
102439 102042 102055 102669 102497 102643 102559 102549 102568 102038
102062 102654 102543 102708 102446 102624 102574 102569 102558 102666
102506 102697 102454 102743 102434 102586 102563 102743 102433 102740
102429 102647 102544 102634 102562 102736 102423 102687 102663 102512
102464 102731 102531 102529 102418 102042 102048 102609 102562 102539
102536 102039 102053 102722 102417 102550 102543 102679 102473 102638
102543 102713 102419 102565 102548 102654 102517 102624 102554 102704
102425 102674 102481 102587 102548 102519 102043 102695 102434 102521
102524 102040 102046 102629 102539 102742 102413 102741 102644 102519
102412 102531 102529 102739 102408 102735 102608 102543 102402 102666
102487 102687 102545 102533 102443 102730 102398 102722 102396 102563
102534 102632 102519 102619 102533 102683 102451 102713 102398 102654
102491 102508 102512 102041 102041 102584 102531 102512 102516 102703
102404 102678 102458 102525 102518 102620 102517 102640 102494 102693
102413 102604 102524 102740 102542 102519 102396 102739 102395 102737
102391 102666 102463 102734 102385 102688 102422 102729 102561 102518
102380 102624 102494 102605 102512 102721 102500 102378 102039 102499
102503 102682 102430 102651 102506 102504 102467 102580 102513 102711
102380 102521 102505 102703 102386 102673 102436 102605 102494 102538
102504 102589 102505 102636 102469 102695 102395 102735 102381 102735
102380 102732 102555 102502 102375 102662 102441 102489 102490 102729
102369 102490 102489 102687 102404 102723 102364 102586 102500 102489
102490 102618 102470 102715 102361 102568 102496 102516 102490 102676
102648 102444 102411 102705 102363 102532 102489 102696 102369 102598
102470 102663 102417 102567 102485 102477 102633 102445 102478 102474
102692 102378 102483 102474 102545 102486 102730 102371 102652 102421
102729 102369 102495 102474 102727 102364 102683 102387 102724 102358
102576 102469 102616 102446 102509 102475 102718 102352 102551 102479
102711 102349 102642 102423 102670 102395 102523 102474 102704 102351
102463 102460 102468 102457 102596 102447 102559 102466 102654 102401
102475 102457 102696 102356 102632 102423 102535 102470 102487 102459
102689 102364 102643 102404 102725 102364 102725 102501 102460 102362
102572 102447 102723 102357 102680 102373 102620 102545 102461 102423
102721 102350 102444 102717 102450 102440 102344 102639 102405 102515
102459 102456 102439 102664 102381 102712 102341 102465 102440 102709
102555 102446 102341 102606 102424 102528 102455 102649 102388 102477
102444 102634 102404 102705 102346 102491 102446 102695 102353 102641
102391 102427 102422 102589 102425 102543 102435 102420 102444 102628
102403 102722 102362 102722 102360 102684 102361 102721 102444 102420
102354 102720 102347 102507 102445 102719 102454 102424 102341 102640
102391 102669 102370 102716 102336 102573 102427 102619 102403 102467
102430 102525 102439 102712 102336 102639 102389 102654 102376 102403
102708 102409 102399 102339 102483 102433 102419 102399 102609 102404
102703 102345 102553 102430 102403 102427 102647 102380 102637 102386
102503 102431 102442 102409 102724 102364 102724 102362 102695 102352
102724 102355 102723 102348 102645 102381 102723 102341 102458 102416
102591 102407 102681 102360 102631 102385 102722 102529 102383 102378
102424 102335 102391 102377 102717 102333 102403 102379 102646 102478
102420 102379 102667 102367 102714 102416 102386 102335 102564 102410
102620 102387 102713 102339 102658 102372 102431 102396 102504 102417
102645 102375 102710 102345 102728 102369 102727 102357 102367 102363
102354 102450 102404 102727 102360 102374 102355 102727 102652 102374
102352 102599 102391 102535 102409 102727 102344 102640 102388 102361
102373 102698 102352 102727 102338 102475 102407 102404 102372 102651
102373 102725 102334 102683 102359 102571 102395 102727 102334 102422
102384 102631 102374 102507 102405 102335 102331 102670 102365 102344
102331 102728 102336 102649 102370 102357 102336 102446 102393 102725
102341 102730 102376 102730 102373 102346 102374 102611 102378 102730
102367 102544 102396 102660 102368 102730 102358 102644 102368 102477
102396 102730 102349 102713 102393 102360 102347 102730 102342 102652
102370 102308 102731 102337 102416 102374 102315 102306 102697 102354
102583 102383 102326 102309 102514 102394 102633 102369 102733 102335
102341 102318 102445 102383 102646 102369 102682 102360 102734 102336
102361 102333 102554 102386 102614 102372 102733 102339 102732 102385
102732 102382 102666 102365 102386 102350 102483 102387 102731 102375
102639 102368 102730 102366 102285 102281 102724 102345 102729 102357
102295 102282 102415 102365 102309 102290 102730 102349 102651 102368
102589 102378 102733 102342 102524 102327 102304 102386 102708 102352
102628 102369 102735 102450 102375 102339 102353 102322 102639 102370
102690 102358 102738 102339 102562 102383 102341 102382 102256 102612
102263 102255 102372 102493 102381 102737 102341 102276 102261 102669
102364 102732 102392 102732 102390 102628 102371 102732 102383 102294
102273 102732 102418 102359 102374 102729 102346 102732 102365 102317
102292 102649 102368 102733 102356 102592 102377 102535 102383 102713
102352 102619 102373 102736 102348 102314 102349 102459 102371 102738
102231 102228 102344 102631 102241 102231 102372 102693 102359 102386
102336 102257 102242 102740 102343 102570 102382 102505 102379 102608
102377 102280 102260 102738 102344 102670 102365 102619 102427 102357
102374 102732 102310 102284 102398 102732 102396 102732 102390 102731
102382 102728 102349 102731 102373 102546 102384 102594 102382 102645
102348 102310 102371 102200 102732 102473 102372 102364 102206 102201
102613 102378 102219 102211 102713 102355 102735 102356 102240 102228
102394 102336 102737 102626 102375 102351 102694 102270 102252 102361
102578 102387 102520 102383 102608 102383 102738 102349 102442 102360
102307 102281 102670 102614 102379 102368 102735 102350 102170 102170
102731 102400 102731 102179 102178 102399 102730 102355 102311 102395
102558 102391 102729 102726 102353 102388 102601 102198 102195 102389
102491 102377 102730 102646 102374 102379 102226 102219 102608 102384
102731 102371 102712 102359 102408 102342 102734 102363 102264 102249
102629 102380 102588 102395 102734 102358 102536 102392 102695 102365
102609 102390 102311 102284 102461 102367 102137 102734 102355 102138
102145 102152 102161 102620 102385 102675 102372 102178 102185 102730
102355 102368 102319 102571 102400 102728 102400 102608 102216 102216
102397 102728 102511 102388 102399 102728 102397 102721 102358 102728
102392 102656 102379 102728 102617 102390 102385 102428 102352 102265
102253 102729 102377 102710 102364 102729 102370 102100 102108 102554
102403 102600 102405 102106 102126 102640 102323 102293 102385 102127
102151 102485 102379 102727 102364 102696 102619 102397 102370 102165
102183 102726 102361 102388 102332 102633 102390 102681 102377 102215
102220 102723 102588 102412 102361 102533 102401 102619 102406 102727
102398 102727 102276 102263 102398 102454 102366 102727 102397 102717
102363 102666 102383 102068 102727 102395 102631 102062 102087 102396
102727 102076 102115 102389 102726 102344 102307 102382 102109 102149
102709 102368 102575 102415 102615 102415 102722 102510 102394 102375
102655 102390 102160 102188 102635 102404 102718 102699 102374 102369
102416 102348 102224 102232 102715 102366 102649 102396 102609 102423
102688 102557 102415 102381 102027 102046 102296 102280 102715 102027
102077 102365 102639 102413 102482 102382 102053 102114 102725 102397
102725 102397 102713 102368 102679 102650 102103 102155 102402 102387
102725 102398 102723 102373 102326 102397 102723 102392 102598 102427
102169 102200 102537 102409 102709 102638 102423 102372 102722 102385
102673 102394 102717 102378 102655 102409 102447 102367 102246 102250
102703 102378 102711 102003 102372 101988 102036 102001 102077 102582
102428 102709 102672 102326 102300 102400 102369 102632 102432 102044
102122 102697 102384 102512 102400 102661 102419 102111 102169 102711
102369 102407 102347 102677 102406 102691 102192 102219 102390 102725
102397 102712 102371 102725 102397 102724 102398 102622 102437 102722
102397 102563 102424 102662 102429 102720 102393 101963 101994 102711
102278 102272 102376 102481 102386 101959 102039 102718 102386 102690
102397 102682 101990 102088 102413 102713 102379 102053 102138 102708
102381 102363 102323 102707 102373 102607 102438 102655 102437 102694
102403 102541 102136 102189 102416 102707 102370 102705 102685 102423
102386 102445 102368 102227 102243 102711 102370 101956 102701 102409
101934 102001 102703 102391 102644 101947 102054 102442 102714 102372
102725 102590 102435 102725 102723 102318 102297 102684 102432 102722
101999 102107 102514 102404 102720 102715 102377 102080 102160 102717
102705 102397 102708 102416 102405 102347 102712 102175 102214 102714
102382 102631 102444 102708 102676 102571 102429 102439 102711 102404
102271 102270 102709 102711 102483 101928 101967 102389 102424 102714
101922 102022 102387 101956 102078 102714 102028 102133 102364 102323
102720 102410 102615 102443 102663 102444 102717 102391 102718 102548
102420 102723 102709 102432 102722 102123 102187 102721 102719 102718
102448 102370 102719 102224 102243 102720 102729 102417 102397 102716
101943 102649 102446 102714 101918 101994 102597 102439 102719 102701