#           y             T         TMean   TPrime2Mean           U_x           U_y           U_z       UMean_x       UMean_y       UMean_z UPrime2Mea... UPrime2Mea... UPrime2Mea... UPrime2Mea... UPrime2Mea... UPrime2Mea...            O2           H2O          C3H8             p         pMean   pPrime2Mean           CO2
         0.02       287.545       288.104       0.15535       30.2257      -3.28106             0       21.4474     -0.644431             0       43.7053      -1.97615             0       20.5528             0             0      0.226697   1.12942e-16     0.0143607        102110        103212        117984    2.0693e-16
    0.0201677       287.553       288.102      0.150847       29.9497      -3.37747             0       21.4726     -0.618182             0       43.6025      -1.17156             0       20.9006             0             0       0.22656   1.32506e-16     0.0149576        102106        103211        118586   2.42775e-16
    0.0203353       287.561       288.099      0.146345       29.6738      -3.47389             0       21.4977     -0.591933             0       43.4998     -0.366964             0       21.2484             0             0      0.226422    1.5207e-16     0.0155544        102102        103210        119187    2.7862e-16
     0.020503       287.569       288.097      0.141842       29.3979       -3.5703             0       21.5229     -0.565685             0        43.397      0.437627             0       21.5962             0             0      0.226285   1.71634e-16     0.0161512        102099        103210        119789   3.14465e-16
    0.0206707       287.577       288.095       0.13734        29.122      -3.66671             0        21.548     -0.539436             0       43.2942       1.24222             0       21.9439             0             0      0.226148   1.91198e-16      0.016748        102095        103209        120390    3.5031e-16
    0.0208383       287.585       288.093      0.132837        28.846      -3.76313             0       21.5732     -0.513188             0       43.1915       2.04681             0       22.2917             0             0      0.226011   2.10762e-16     0.0173449        102091        103209        120992   3.86155e-16
     0.021006       287.593        288.09      0.128362       28.5619      -3.86084             0       21.5928     -0.486616             0       43.0929       2.85501             0       22.6418             0             0      0.225861   2.30572e-16     0.0179965        102087        103208        121596   4.22451e-16
    0.0211737       287.602       288.093      0.124628       28.0574      -3.99355             0       21.4631     -0.451357             0       43.1067        3.7605             0        23.054             0             0      0.225371   2.57012e-16      0.020124        102083        103207        122275   4.70893e-16
    0.0213413       287.612       288.095      0.120894       27.5529      -4.12626             0       21.3334     -0.416098             0       43.1205         4.666             0       23.4662             0             0      0.224882   2.83452e-16     0.0222515        102080        103207        122954   5.19336e-16
     0.021509       287.621       288.098       0.11716       27.0483      -4.25897             0       21.2038     -0.380839             0       43.1343       5.57149             0       23.8785             0             0      0.224393   3.09891e-16     0.0243789        102076        103206        123633   5.67779e-16
    0.0216767        287.63         288.1      0.113425       26.5438      -4.39168             0       21.0741      -0.34558             0       43.1481       6.47698             0       24.2907             0             0      0.223904   3.36331e-16     0.0265064        102072        103205        124313   6.16221e-16
    0.0218443       287.639       288.103      0.109691       26.0392      -4.52439             0       20.9445     -0.310321             0       43.1619       7.38247             0       24.7029             0             0      0.223414   3.62771e-16     0.0286339        102068        103205        124992   6.64664e-16
     0.022012       287.648       288.106      0.106073       25.5428      -4.66109             0       20.8039     -0.276438             0       43.1635       8.28202             0       25.1203             0             0      0.222935    3.8847e-16     0.0307189        102064        103204        125676   7.11749e-16
    0.0221797       287.655       288.112      0.103965       25.1514      -4.84948             0       20.5226     -0.260385             0       43.0078       9.10467             0       25.6042             0             0      0.222581   4.04565e-16     0.0322549        102061        103203        126426   7.41239e-16
    0.0223473       287.661       288.119      0.101856       24.7599      -5.03788             0       20.2412     -0.244332             0       42.8521       9.92732             0       26.0881             0             0      0.222228   4.20661e-16     0.0337908        102057        103203        127177   7.70729e-16
     0.022515       287.667       288.126      0.099748       24.3685      -5.22628             0       19.9598     -0.228279             0       42.6963         10.75             0        26.572             0             0      0.221875   4.36757e-16     0.0353267        102054        103202        127927   8.00219e-16
    0.0226827       287.674       288.132     0.0976396        23.977      -5.41467             0       19.6784     -0.212226             0       42.5406       11.5726             0       27.0559             0             0      0.221522   4.52852e-16     0.0368626        102050        103202        128678    8.2971e-16
    0.0228504        287.68       288.139     0.0955312       23.5856      -5.60307             0        19.397     -0.196173             0       42.3848       12.3953             0       27.5398             0             0      0.221168   4.68948e-16     0.0383985        102046        103201        129428     8.592e-16
     0.023018       287.686       288.146     0.0936451       23.2088        -5.797             0       19.1033       -0.1837             0       42.1949       13.1912             0        28.046             0             0      0.220841   4.83715e-16      0.039823        102043        103200        130185   8.86255e-16
    0.0231857        287.69       288.156     0.0936061       22.9537      -6.03693             0       18.7068     -0.200966             0       41.7207       13.7651             0       28.7373             0             0      0.220726   4.87445e-16     0.0403229        102039        103200        130993    8.9309e-16
    0.0233534       287.694       288.165     0.0935671       22.6986      -6.27687             0       18.3102     -0.218231             0       41.2466        14.339             0       29.4285             0             0      0.220611   4.91176e-16     0.0408227        102035        103199        131802   8.99926e-16
     0.023521       287.698       288.175     0.0935281       22.4435       -6.5168             0       17.9137     -0.235497             0       40.7724       14.9129             0       30.1198             0             0      0.220496   4.94906e-16     0.0413226        102031        103198        132610   9.06761e-16
    0.0236887       287.702       288.185     0.0934891       22.1885      -6.75673             0       17.5172     -0.252762             0       40.2983       15.4868             0       30.8111             0             0      0.220381   4.98637e-16     0.0418224        102027        103198        133419   9.13596e-16
    0.0238564       287.706       288.195     0.0934501       21.9334      -6.99666             0       17.1207     -0.270028             0       39.8241       16.0607             0       31.5024             0             0      0.220266   5.02367e-16     0.0423222        102023        103197        134228   9.20431e-16
     0.024024       287.711       288.205     0.0936021       21.6657      -7.24106             0       16.7244     -0.293165             0       39.3972       16.5861             0       32.2281             0             0      0.220164    5.0561e-16     0.0427654        102019        103196        135052   9.26372e-16
    0.0241917       287.716       288.216     0.0948963       21.3229      -7.51217             0       16.3298      -0.35141             0       39.2523       16.8213             0       33.1595             0             0       0.22014   5.05935e-16     0.0428698        102014        103196        135974   9.26968e-16
    0.0243594       287.721       288.226     0.0961904       20.9801      -7.78328             0       15.9351     -0.409656             0       39.1074       17.0564             0       34.0909             0             0      0.220116   5.06261e-16     0.0429741        102010        103195        136896   9.27564e-16
     0.024527       287.726       288.237     0.0974846       20.6374      -8.05439             0       15.5405     -0.467902             0       38.9625       17.2915             0       35.0222             0             0      0.220092   5.06586e-16     0.0430784        102005        103194        137818    9.2816e-16
    0.0246947       287.731       288.248     0.0987787       20.2946      -8.32551             0       15.1458     -0.526147             0       38.8176       17.5267             0       35.9536             0             0      0.220068   5.06911e-16     0.0431828        102001        103194        138740   9.28756e-16
    0.0248624       287.737       288.259      0.100073       19.9518      -8.59662             0       14.7512     -0.584393             0       38.6727       17.7618             0        36.885             0             0      0.220044   5.07236e-16     0.0432871        101996        103193        139662   9.29352e-16
      0.02503       287.742       288.269      0.101379       19.5986      -8.87293             0       14.3754     -0.648494             0       38.5401       17.9685             0       37.8593             0             0      0.220028   5.07395e-16     0.0433563        101991        103192        140617   9.29641e-16
    0.0251977       287.746       288.277      0.102741       19.1979      -9.17304             0       14.0862     -0.739435             0       38.4638       18.0448             0         39.03             0             0      0.220049   5.06786e-16     0.0432647        101987        103191        141723   9.28526e-16
    0.0253654       287.751       288.286      0.104104       18.7971      -9.47315             0       13.7969     -0.830375             0       38.3876       18.1211             0       40.2007             0             0       0.22007   5.06177e-16      0.043173        101982        103190        142829   9.27411e-16
     0.025533       287.755       288.294      0.105466       18.3964      -9.77326             0       13.5077     -0.921315             0       38.3113       18.1974             0       41.3714             0             0      0.220091   5.05569e-16     0.0430813        101977        103189        143935   9.26296e-16
    0.0257007        287.76       288.303      0.106828       17.9956      -10.0734             0       13.2184      -1.01226             0        38.235       18.2737             0       42.5421             0             0      0.220112    5.0496e-16     0.0429897        101972        103187        145041   9.25181e-16
    0.0258684       287.765       288.311       0.10819       17.5948      -10.3735             0       12.9292       -1.1032             0       38.1587         18.35             0       43.7128             0             0      0.220134   5.04352e-16      0.042898        101967        103186        146147   9.24066e-16
     0.026036       287.768       288.319      0.109389       17.1925      -10.6731             0       12.6548      -1.19824             0       37.9631       18.4006             0       44.9307             0             0      0.220165    5.0356e-16     0.0427618        101962        103185        147296   9.22616e-16
    0.0262037       287.768       288.323      0.109994       16.7842       -10.971             0       12.4344      -1.30827             0       37.3317       18.3571             0       46.3211             0             0      0.220234   5.02103e-16     0.0424628        101957        103183        148606   9.19945e-16
    0.0263714       287.769       288.327      0.110598       16.3759       -11.269             0        12.214      -1.41831             0       36.7003       18.3136             0       47.7114             0             0      0.220302   5.00645e-16     0.0421638        101951        103182        149916   9.17274e-16
     0.026539       287.769       288.331      0.111202       15.9677      -11.5669             0       11.9937      -1.52834             0       36.0689       18.2701             0       49.1017             0             0      0.220371   4.99187e-16     0.0418648        101946        103180        151226   9.14603e-16
    0.0267067       287.769       288.335      0.111806       15.5594      -11.8648             0       11.7733      -1.63837             0       35.4376       18.2266             0       50.4921             0             0       0.22044   4.97729e-16     0.0415658        101940        103179        152536   9.11932e-16
    0.0268744       287.769       288.339       0.11241       15.1511      -12.1627             0       11.5529      -1.74841             0       34.8062       18.1832             0       51.8824             0             0      0.220509   4.96271e-16     0.0412668        101935        103177        153846   9.09261e-16
     0.027042       287.769       288.342      0.112898       14.7292      -12.4517             0       11.3266      -1.85943             0       34.1193       18.0909             0       53.3132             0             0      0.220584   4.94628e-16      0.040938        101929        103176        155186    9.0625e-16
    0.0272097       287.766       288.344      0.113036       14.2666      -12.7139             0       11.0823      -1.97341             0       33.2665       17.8527             0        54.865             0             0       0.22068    4.9243e-16     0.0405197        101923        103174        156615   9.02223e-16
    0.0273774       287.763       288.345      0.113175        13.804      -12.9761             0        10.838      -2.08739             0       32.4137       17.6146             0       56.4168             0             0      0.220777   4.90232e-16     0.0401015        101918        103172        158045   8.98197e-16
     0.027545        287.76       288.347      0.113314       13.3413      -13.2382             0       10.5937      -2.20137             0       31.5609       17.3765             0       57.9686             0             0      0.220873   4.88034e-16     0.0396833        101912        103170        159475    8.9417e-16
    0.0277127       287.758       288.348      0.113453       12.8787      -13.5004             0       10.3494      -2.31535             0       30.7081       17.1383             0       59.5204             0             0      0.220969   4.85837e-16      0.039265        101907        103169        160905   8.90143e-16
    0.0278804       287.755        288.35      0.113591        12.416      -13.7626             0       10.1051      -2.42934             0       29.8553       16.9002             0       61.0722             0             0      0.221065   4.83639e-16     0.0388468        101901        103167        162335   8.86117e-16
     0.028048       287.752       288.351      0.113694       11.9476        -14.01             0       9.85438      -2.54515             0       28.9806        16.605             0       62.6237             0             0      0.221153   4.81625e-16     0.0384652        101896        103165        163742   8.82427e-16
    0.0282157       287.749       288.353      0.113709       11.4649      -14.2206             0       9.58754      -2.66555             0       28.0512       16.1675             0       64.1744             0             0       0.22122   4.80068e-16     0.0381748        101891        103163        165093   8.79575e-16
    0.0283834       287.746       288.354      0.113724       10.9821      -14.4312             0        9.3207      -2.78594             0       27.1218       15.7301             0       65.7252             0             0      0.221287   4.78512e-16     0.0378843        101886        103161        166445   8.76723e-16
    0.0285511       287.744       288.356      0.113739       10.4993      -14.6418             0       9.05387      -2.90633             0       26.1924       15.2926             0       67.2759             0             0      0.221353   4.76955e-16     0.0375938        101881        103159        167797   8.73871e-16
    0.0287187       287.741       288.357      0.113754       10.0165      -14.8524             0       8.78703      -3.02673             0       25.2631       14.8552             0       68.8266             0             0       0.22142   4.75398e-16     0.0373034        101877        103157        169148   8.71019e-16
    0.0288864       287.738       288.358      0.113769       9.53377      -15.0629             0        8.5202      -3.14712             0       24.3337       14.4177             0       70.3773             0             0      0.221487   4.73842e-16     0.0370129        101872        103155        170500   8.68166e-16
    0.0290541       287.735        288.36      0.113731       9.04669      -15.2501             0       8.25013      -3.26911             0       23.4359       13.9089             0       71.8524             0             0      0.221544    4.7248e-16     0.0367629        101868        103154        171747   8.65671e-16
    0.0292217       287.733       288.361      0.113581       8.55059      -15.3882             0       7.97329      -3.39445             0       22.6046       13.2502             0       73.1687             0             0      0.221582   4.71527e-16     0.0365977        101864        103152        172776   8.63925e-16
    0.0293894       287.731       288.362      0.113432       8.05448      -15.5263             0       7.69644       -3.5198             0       21.7733       12.5914             0        74.485             0             0       0.22162   4.70574e-16     0.0364326        101861        103150        173804   8.62179e-16
    0.0295571       287.728       288.363      0.113282       7.55837      -15.6644             0        7.4196      -3.64514             0       20.9419       11.9327             0       75.8013             0             0      0.221658   4.69621e-16     0.0362674        101858        103148        174832   8.60432e-16
    0.0297247       287.726       288.363      0.113133       7.06227      -15.8024             0       7.14276      -3.77048             0       20.1106       11.2739             0       77.1176             0             0      0.221696   4.68668e-16     0.0361022        101855        103147        175861   8.58686e-16
    0.0298924       287.723       288.364      0.112983       6.56616      -15.9405             0       6.86591      -3.89582             0       19.2792       10.6151             0       78.4339             0             0      0.221734   4.67714e-16     0.0359371        101852        103145        176889    8.5694e-16
    0.0300601       287.721       288.365      0.112803       6.07233      -16.0503             0       6.58519      -4.02044             0       18.6288       9.88299             0       79.6065             0             0      0.221766   4.66808e-16     0.0357983        101849        103144        177751    8.5528e-16
    0.0302277       287.718       288.366      0.112568       5.58257      -16.1092             0       6.29754      -4.14377             0       18.3024       9.01935             0       80.5216             0             0      0.221787   4.65985e-16     0.0357067        101848        103142        178315   8.53772e-16
    0.0303954       287.716       288.366      0.112333       5.09281      -16.1682             0       6.00988      -4.26709             0        17.976       8.15572             0       81.4368             0             0      0.221808   4.65163e-16     0.0356152        101847        103141        178879   8.52265e-16
    0.0305631       287.714       288.367      0.112097       4.60305      -16.2272             0       5.72223      -4.39042             0       17.6496       7.29208             0        82.352             0             0       0.22183    4.6434e-16     0.0355236        101846        103140        179443   8.50758e-16
    0.0307307       287.711       288.368      0.111862        4.1133      -16.2862             0       5.43457      -4.51374             0       17.3232       6.42844             0       83.2672             0             0      0.221851   4.63517e-16     0.0354321        101844        103138        180007    8.4925e-16
    0.0308984       287.709       288.368      0.111627       3.62354      -16.3452             0       5.14692      -4.63706             0       16.9968       5.56481             0       84.1824             0             0      0.221872   4.62695e-16     0.0353405        101843        103137        180571   8.47743e-16
    0.0310661       287.707       288.369      0.111438        3.1467      -16.3728             0       4.85936      -4.75752             0       16.8701       4.69386             0       84.9113             0             0      0.221886   4.61916e-16     0.0352801        101843        103136        180960   8.46316e-16
    0.0312337       287.705       288.369       0.11132       2.68971      -16.3522             0       4.57195      -4.87355             0       17.0507       3.81167             0       85.3538             0             0      0.221888   4.61205e-16     0.0352676        101844        103135        181080   8.45013e-16
    0.0314014       287.704        288.37      0.111203       2.23273      -16.3316             0       4.28455      -4.98959             0       17.2312       2.92948             0       85.7963             0             0      0.221891   4.60493e-16     0.0352552        101845        103134        181201   8.43709e-16
    0.0315691       287.702        288.37      0.111085       1.77574       -16.311             0       3.99714      -5.10562             0       17.4118       2.04729             0       86.2387             0             0      0.221894   4.59782e-16     0.0352427        101846        103133        181321   8.42406e-16
    0.0317367         287.7        288.37      0.110967       1.31876      -16.2904             0       3.70974      -5.22166             0       17.5923       1.16511             0       86.6812             0             0      0.221897    4.5907e-16     0.0352303        101847        103133        181441   8.41102e-16
    0.0319044       287.699       288.371       0.11085      0.861774      -16.2698             0       3.42233      -5.33769             0       17.7729      0.282917             0       87.1237             0             0        0.2219   4.58359e-16     0.0352178        101848        103132        181561   8.39798e-16
    0.0320721       287.697       288.371      0.110746       0.42563      -16.2212             0       3.14231      -5.45015             0       18.0418      -0.51806             0       87.3771             0             0      0.221895   4.57507e-16     0.0352406        101849        103131        181550   8.38238e-16
    0.0322397       287.696       288.371       0.11066     0.0171294      -16.1353             0       2.87209      -5.55785             0       18.4279      -1.21132             0       87.3797             0             0      0.221879   4.56469e-16     0.0353103        101852        103131        181366   8.36336e-16
    0.0324074       287.694       288.371      0.110574     -0.391371      -16.0493             0       2.60186      -5.66556             0       18.8139      -1.90458             0       87.3822             0             0      0.221863   4.55431e-16       0.03538        101855        103130        181182   8.34434e-16
    0.0325751       287.693       288.371      0.110489     -0.799872      -15.9634             0       2.33163      -5.77327             0          19.2      -2.59784             0       87.3848             0             0      0.221847   4.54393e-16     0.0354496        101857        103130        180998   8.32532e-16
    0.0327427       287.691       288.371      0.110403      -1.20837      -15.8775             0       2.06141      -5.88097             0       19.5861       -3.2911             0       87.3874             0             0      0.221831   4.53355e-16     0.0355193        101860        103129        180814    8.3063e-16
    0.0329104        287.69        288.37      0.110317      -1.61687      -15.7916             0       1.79118      -5.98868             0       19.9722      -3.98436             0       87.3899             0             0      0.221814   4.52317e-16      0.035589        101863        103129        180630   8.28728e-16
    0.0330781       287.688        288.37      0.110252      -1.99814      -15.6832             0       1.53287      -6.09145             0       20.3389       -4.5294             0       87.2251             0             0      0.221788   4.51152e-16     0.0357026        101866        103128        180377   8.26595e-16
    0.0332457       287.685        288.37      0.110211      -2.34814       -15.549             0       1.28823      -6.18856             0       20.6832      -4.90436             0       86.8681             0             0      0.221751   4.49844e-16     0.0358668        101870        103128        180045   8.24197e-16
    0.0334134       287.683       288.369      0.110169      -2.69815      -15.4147             0       1.04359      -6.28568             0       21.0276      -5.27931             0       86.5111             0             0      0.221713   4.48535e-16     0.0360309        101874        103128        179713   8.21799e-16
    0.0335811       287.681       288.369      0.110127      -3.04816      -15.2805             0      0.798954      -6.38279             0        21.372      -5.65427             0       86.1541             0             0      0.221675   4.47226e-16     0.0361951        101878        103128        179381   8.19402e-16
    0.0337487       287.679       288.368      0.110086      -3.39816      -15.1463             0      0.554315       -6.4799             0       21.7164      -6.02923             0       85.7971             0             0      0.221637   4.45917e-16     0.0363592        101882        103128        179050   8.17004e-16
    0.0339164       287.677       288.368      0.110044      -3.74817       -15.012             0      0.309676      -6.57702             0       22.0608      -6.40418             0       85.4401             0             0        0.2216   4.44609e-16     0.0365234        101886        103128        178718   8.14606e-16
    0.0340841       287.674       288.367      0.110038      -4.06963      -14.8629             0     0.0779448      -6.66668             0       22.3238      -6.60193             0       84.9399             0             0      0.221555   4.43424e-16     0.0367193        101890        103128        178370   8.12435e-16
    0.0342518       287.672       288.367      0.110068      -4.36272      -14.6989             0     -0.140955      -6.74894             0       22.5061      -6.62352             0       84.2974             0             0      0.221502   4.42362e-16     0.0369466        101895        103128        178005    8.1049e-16
    0.0344194       287.669       288.366      0.110097      -4.65581       -14.535             0     -0.359854       -6.8312             0       22.6883      -6.64512             0       83.6549             0             0       0.22145     4.413e-16      0.037174        101900        103129        177641   8.08544e-16
    0.0345871       287.667       288.365      0.110127       -4.9489      -14.3711             0     -0.578754      -6.91345             0       22.8705      -6.66671             0       83.0124             0             0      0.221398   4.40239e-16     0.0374014        101905        103129        177277   8.06599e-16
    0.0347548       287.665       288.365      0.110156      -5.24199      -14.2071             0     -0.797653      -6.99571             0       23.0527       -6.6883             0       82.3699             0             0      0.221345   4.39177e-16     0.0376288        101910        103129        176912   8.04654e-16
    0.0349224       287.662       288.364      0.110185      -5.53508      -14.0432             0      -1.01655      -7.07797             0       23.2349      -6.70989             0       81.7274             0             0      0.221293   4.38115e-16     0.0378561        101915        103129        176548   8.02709e-16
    0.0350901        287.66       288.364      0.110291      -5.80162      -13.8702             0      -1.22413      -7.14998             0       23.3344      -6.57691             0       80.9527             0             0      0.221222   4.37358e-16     0.0381651        101920        103130        176207   8.01321e-16
    0.0352578       287.658       288.363      0.110461       -6.0453      -13.6895             0      -1.42196      -7.21315             0       23.3628      -6.31083             0       80.0642             0             0      0.221135   4.36863e-16     0.0385442        101925        103130        175887   8.00414e-16