#           y             T         TMean   TPrime2Mean           U_x           U_y           U_z       UMean_x       UMean_y       UMean_z UPrime2Mea... UPrime2Mea... UPrime2Mea... UPrime2Mea... UPrime2Mea... UPrime2Mea...            O2           H2O          C3H8             p         pMean   pPrime2Mean           CO2
         0.04       287.952       288.419        0.1029       -9.2803      -8.03637             0      -5.05972      -7.33591             0       20.9903       7.28017             0       40.2554             0             0       0.20172   8.11587e-16      0.122958        102083        103173        169186   1.48698e-15
     0.039975       287.949       288.419       0.10303      -9.26103      -8.06903             0      -5.05269      -7.34212             0       21.0319       7.16695             0       40.4304             0             0      0.201842   8.08633e-16      0.122428        102082        103173        169192   1.48157e-15
    0.0399499       287.947       288.418      0.103159      -9.24175       -8.1017             0      -5.04565      -7.34833             0       21.0735       7.05374             0       40.6054             0             0      0.201963   8.05679e-16      0.121898        102082        103173        169198   1.47615e-15
    0.0399249       287.944       288.418      0.103289      -9.22248      -8.13436             0      -5.03862      -7.35454             0       21.1152       6.94052             0       40.7804             0             0      0.202085   8.02725e-16      0.121368        102081        103173        169204   1.47074e-15
    0.0398999       287.942       288.418      0.103419      -9.20321      -8.16702             0      -5.03158      -7.36076             0       21.1568        6.8273             0       40.9554             0             0      0.202207    7.9977e-16      0.120837        102081        103172        169210   1.46533e-15
    0.0398749        287.94       288.417      0.103549      -9.18394      -8.19969             0      -5.02455      -7.36697             0       21.1984       6.71409             0       41.1304             0             0      0.202329   7.96816e-16      0.120307        102080        103172        169215   1.45992e-15
    0.0398498       287.937       288.417      0.103678      -9.16467      -8.23235             0      -5.01752      -7.37318             0       21.2401       6.60087             0       41.3054             0             0      0.202451   7.93862e-16      0.119777        102080        103172        169221    1.4545e-15
    0.0398248       287.935       288.417      0.103808       -9.1454      -8.26502             0      -5.01048      -7.37939             0       21.2817       6.48765             0       41.4804             0             0      0.202573   7.90908e-16      0.119247        102079        103172        169227   1.44909e-15
    0.0397998       287.933       288.417      0.103938      -9.12612      -8.29768             0      -5.00345       -7.3856             0       21.3233       6.37444             0       41.6554             0             0      0.202695   7.87954e-16      0.118716        102079        103172        169233   1.44368e-15
    0.0397748        287.93       288.416      0.104068      -9.10685      -8.33035             0      -4.99641      -7.39182             0        21.365       6.26122             0       41.8304             0             0      0.202817      7.85e-16      0.118186        102078        103171        169239   1.43827e-15
    0.0397497       287.928       288.416      0.104198      -9.08758      -8.36301             0      -4.98938      -7.39803             0       21.4066       6.14801             0       42.0054             0             0      0.202939   7.82046e-16      0.117656        102078        103171        169245   1.43285e-15
    0.0397247       287.926       288.416      0.104327      -9.06831      -8.39568             0      -4.98235      -7.40424             0       21.4482       6.03479             0       42.1804             0             0      0.203061   7.79092e-16      0.117126        102077        103171        169251   1.42744e-15
    0.0396997       287.923       288.415      0.104457      -9.04904      -8.42834             0      -4.97531      -7.41045             0       21.4899       5.92157             0       42.3554             0             0      0.203183   7.76137e-16      0.116595        102076        103171        169257   1.42203e-15
    0.0396747       287.921       288.415      0.104587      -9.02977      -8.46101             0      -4.96828      -7.41666             0       21.5315       5.80836             0       42.5304             0             0      0.203305   7.73183e-16      0.116065        102076        103170        169262   1.41662e-15
    0.0396496       287.919       288.415      0.104717       -9.0105      -8.49367             0      -4.96124      -7.42287             0       21.5731       5.69514             0       42.7054             0             0      0.203427   7.70229e-16      0.115535        102075        103170        169268    1.4112e-15
    0.0396246       287.916       288.414      0.104846      -8.99122      -8.52633             0      -4.95421      -7.42909             0       21.6148       5.58192             0       42.8804             0             0      0.203549   7.67275e-16      0.115005        102075        103170        169274   1.40579e-15
    0.0395996       287.914       288.414      0.104976      -8.97195        -8.559             0      -4.94717       -7.4353             0       21.6564       5.46871             0       43.0554             0             0      0.203671   7.64321e-16      0.114474        102074        103170        169280   1.40038e-15
    0.0395746       287.911       288.414      0.105106      -8.95268      -8.59166             0      -4.94014      -7.44151             0        21.698       5.35549             0       43.2304             0             0      0.203793   7.61367e-16      0.113944        102074        103169        169286   1.39497e-15
    0.0395495       287.909       288.413      0.105236      -8.93341      -8.62433             0      -4.93311      -7.44772             0       21.7397       5.24227             0       43.4054             0             0      0.203915   7.58413e-16      0.113414        102073        103169        169292   1.38955e-15
    0.0395245       287.907       288.413      0.105365      -8.91414      -8.65699             0      -4.92607      -7.45393             0       21.7813       5.12906             0       43.5804             0             0      0.204037   7.55459e-16      0.112883        102073        103169        169298   1.38414e-15
    0.0394995       287.904       288.413      0.105495      -8.89487      -8.68966             0      -4.91904      -7.46015             0       21.8229       5.01584             0       43.7554             0             0      0.204159   7.52504e-16      0.112353        102072        103169        169304   1.37873e-15
    0.0394745       287.902       288.412      0.105625      -8.87559      -8.72232             0        -4.912      -7.46636             0       21.8646       4.90262             0       43.9304             0             0      0.204281    7.4955e-16      0.111823        102072        103169        169310   1.37332e-15
    0.0394494         287.9       288.412      0.105755      -8.85632      -8.75499             0      -4.90497      -7.47257             0       21.9062       4.78941             0       44.1054             0             0      0.204403   7.46596e-16      0.111293        102071        103168        169315    1.3679e-15
    0.0394244       287.897       288.412      0.105885      -8.83705      -8.78765             0      -4.89794      -7.47878             0       21.9478       4.67619             0       44.2804             0             0      0.204525   7.43642e-16      0.110762        102070        103168        169321   1.36249e-15
    0.0393994       287.895       288.412      0.106014      -8.81778      -8.82031             0       -4.8909      -7.48499             0       21.9895       4.56298             0       44.4554             0             0      0.204647   7.40688e-16      0.110232        102070        103168        169327   1.35708e-15
    0.0393744       287.893       288.411      0.106144      -8.79851      -8.85298             0      -4.88387      -7.49121             0       22.0311       4.44976             0       44.6304             0             0      0.204769   7.37734e-16      0.109702        102069        103168        169333   1.35167e-15
    0.0393493        287.89       288.411      0.106274      -8.77924      -8.88564             0      -4.87683      -7.49742             0       22.0727       4.33654             0       44.8054             0             0       0.20489    7.3478e-16      0.109172        102069        103167        169339   1.34625e-15
    0.0393243       287.888       288.411      0.106404      -8.75997      -8.91831             0       -4.8698      -7.50363             0       22.1144       4.22333             0       44.9804             0             0      0.205012   7.31826e-16      0.108641        102068        103167        169345   1.34084e-15
    0.0392993       287.886        288.41      0.106533      -8.74069      -8.95097             0      -4.86277      -7.50984             0        22.156       4.11011             0       45.1554             0             0      0.205134   7.28871e-16      0.108111        102068        103167        169351   1.33543e-15
    0.0392743       287.883        288.41      0.106663      -8.72142      -8.98364             0      -4.85573      -7.51605             0       22.1976       3.99689             0       45.3304             0             0      0.205256   7.25917e-16      0.107581        102067        103167        169357   1.33002e-15
    0.0392492       287.881        288.41      0.106793      -8.70215       -9.0163             0       -4.8487      -7.52226             0       22.2393       3.88368             0       45.5054             0             0      0.205378   7.22963e-16      0.107051        102067        103167        169362    1.3246e-15
    0.0392242       287.878       288.409      0.106923      -8.68288      -9.04897             0      -4.84166      -7.52848             0       22.2809       3.77046             0       45.6804             0             0        0.2055   7.20009e-16       0.10652        102066        103166        169368   1.31919e-15
    0.0391992       287.876       288.409      0.107052      -8.66361      -9.08163             0      -4.83463      -7.53469             0       22.3225       3.65724             0       45.8554             0             0      0.205622   7.17055e-16       0.10599        102066        103166        169374   1.31378e-15
    0.0391742       287.874       288.409      0.107182      -8.64434       -9.1143             0      -4.82759       -7.5409             0       22.3642       3.54403             0       46.0304             0             0      0.205744   7.14101e-16       0.10546        102065        103166        169380   1.30837e-15
    0.0391491       287.871       288.408      0.107312      -8.62506      -9.14696             0      -4.82056      -7.54711             0       22.4058       3.43081             0       46.2054             0             0      0.205866   7.11147e-16       0.10493        102064        103166        169386   1.30295e-15
    0.0391241       287.869       288.408      0.107442      -8.60579      -9.17962             0      -4.81353      -7.55332             0       22.4474       3.31759             0       46.3804             0             0      0.205988   7.08192e-16      0.104399        102064        103165        169392   1.29754e-15
    0.0390991       287.867       288.408      0.107572      -8.58652      -9.21229             0      -4.80649      -7.55954             0       22.4891       3.20438             0       46.5554             0             0       0.20611   7.05238e-16      0.103869        102063        103165        169398   1.29213e-15
    0.0390741       287.864       288.407      0.107701      -8.56725      -9.24495             0      -4.79946      -7.56575             0       22.5307       3.09116             0       46.7304             0             0      0.206232   7.02284e-16      0.103339        102063        103165        169404   1.28672e-15
     0.039049       287.862       288.407      0.107831      -8.54798      -9.27762             0      -4.79242      -7.57196             0       22.5723       2.97795             0       46.9054             0             0      0.206354    6.9933e-16      0.102809        102062        103165        169409    1.2813e-15
     0.039024        287.86       288.407      0.107961      -8.52871      -9.31028             0      -4.78539      -7.57817             0        22.614       2.86473             0       47.0804             0             0      0.206476   6.96376e-16      0.102278        102062        103165        169415   1.27589e-15
     0.038999       287.857       288.406      0.108088      -8.50951      -9.34312             0      -4.77813      -7.58425             0       22.6551       2.75216             0       47.2559             0             0      0.206598   6.93433e-16      0.101747        102061        103164        169422    1.2705e-15
     0.038974       287.855       288.406       0.10816      -8.49214      -9.38003             0      -4.76535       -7.5871             0       22.6839       2.65517             0       47.4429             0             0      0.206727   6.90755e-16      0.101186        102061        103164        169440   1.26559e-15
    0.0389489       287.852       288.406      0.108232      -8.47476      -9.41695             0      -4.75257      -7.58996             0       22.7127       2.55817             0         47.63             0             0      0.206856   6.88076e-16      0.100626        102060        103164        169459   1.26068e-15
    0.0389239        287.85       288.405      0.108303      -8.45739      -9.45386             0      -4.73979      -7.59281             0       22.7415       2.46117             0       47.8171             0             0      0.206985   6.85398e-16      0.100065        102059        103164        169478   1.25578e-15
    0.0388989       287.847       288.405      0.108375      -8.44001      -9.49078             0      -4.72702      -7.59567             0       22.7703       2.36418             0       48.0041             0             0      0.207114    6.8272e-16     0.0995042        102059        103163        169497   1.25087e-15
    0.0388739       287.845       288.405      0.108447      -8.42264      -9.52769             0      -4.71424      -7.59852             0       22.7991       2.26718             0       48.1912             0             0      0.207243   6.80041e-16     0.0989436        102058        103163        169515   1.24596e-15
    0.0388488       287.842       288.404      0.108518      -8.40527      -9.56461             0      -4.70146      -7.60138             0       22.8279       2.17018             0       48.3782             0             0      0.207372   6.77363e-16     0.0983829        102057        103163        169534   1.24106e-15
    0.0388238        287.84       288.404       0.10859      -8.38789      -9.60152             0      -4.68868      -7.60423             0       22.8568       2.07319             0       48.5653             0             0      0.207501   6.74685e-16     0.0978222        102057        103163        169553   1.23615e-15
    0.0387988       287.837       288.404      0.108661      -8.37052      -9.63844             0      -4.67591      -7.60709             0       22.8856       1.97619             0       48.7524             0             0       0.20763   6.72006e-16     0.0972615        102056        103163        169571   1.23124e-15
    0.0387738       287.835       288.403      0.108733      -8.35314      -9.67536             0      -4.66313      -7.60994             0       22.9144       1.87919             0       48.9394             0             0      0.207759   6.69328e-16     0.0967009        102056        103162        169590   1.22633e-15
    0.0387487       287.833       288.403      0.108805      -8.33577      -9.71227             0      -4.65035       -7.6128             0       22.9432        1.7822             0       49.1265             0             0      0.207888    6.6665e-16     0.0961402        102055        103162        169609   1.22143e-15
    0.0387237        287.83       288.403      0.108876      -8.31839      -9.74919             0      -4.63757      -7.61565             0        22.972        1.6852             0       49.3136             0             0      0.208017   6.63971e-16     0.0955795        102054        103162        169628   1.21652e-15
    0.0386987       287.828       288.402      0.108948      -8.30102       -9.7861             0       -4.6248      -7.61851             0       23.0008        1.5882             0       49.5006             0             0      0.208146   6.61293e-16     0.0950188        102054        103162        169646   1.21161e-15
    0.0386737       287.825       288.402       0.10902      -8.28364      -9.82302             0      -4.61202      -7.62136             0       23.0296       1.49121             0       49.6877             0             0      0.208275   6.58615e-16     0.0944582        102053        103161        169665   1.20671e-15
    0.0386486       287.823       288.402      0.109091      -8.26627      -9.85993             0      -4.59924      -7.62422             0       23.0584       1.39421             0       49.8747             0             0      0.208404   6.55936e-16     0.0938975        102053        103161        169684    1.2018e-15
    0.0386236        287.82       288.402      0.109163       -8.2489      -9.89685             0      -4.58646      -7.62707             0       23.0873       1.29722             0       50.0618             0             0      0.208533   6.53258e-16     0.0933368        102052        103161        169702   1.19689e-15
    0.0385986       287.818       288.401      0.109235      -8.23152      -9.93376             0      -4.57369      -7.62993             0       23.1161       1.20022             0       50.2489             0             0      0.208661    6.5058e-16     0.0927761        102051        103161        169721   1.19198e-15
    0.0385736       287.815       288.401      0.109306      -8.21415      -9.97068             0      -4.56091      -7.63278             0       23.1449       1.10322             0       50.4359             0             0       0.20879   6.47901e-16     0.0922155        102051        103161        169740   1.18708e-15
    0.0385485       287.813       288.401      0.109378      -8.19677      -10.0076             0      -4.54813      -7.63564             0       23.1737       1.00623             0        50.623             0             0      0.208919   6.45223e-16     0.0916548        102050        103160        169759   1.18217e-15
    0.0385235        287.81         288.4       0.10945       -8.1794      -10.0445             0      -4.53535      -7.63849             0       23.2025       0.90923             0       50.8101             0             0      0.209048   6.42545e-16     0.0910941        102050        103160        169777   1.17726e-15
    0.0384985       287.808         288.4      0.109521      -8.16202      -10.0814             0      -4.52257      -7.64135             0       23.2313      0.812234             0       50.9971             0             0      0.209177   6.39867e-16     0.0905334        102049        103160        169796   1.17235e-15
    0.0384735       287.805         288.4      0.109593      -8.14465      -10.1183             0       -4.5098       -7.6442             0       23.2601      0.715237             0       51.1842             0             0      0.209306   6.37188e-16     0.0899727        102048        103160        169815   1.16745e-15
    0.0384484       287.803       288.399      0.109664      -8.12727      -10.1553             0      -4.49702      -7.64706             0       23.2889      0.618241             0       51.3713             0             0      0.209435    6.3451e-16     0.0894121        102048        103160        169833   1.16254e-15
    0.0384234       287.801       288.399      0.109736       -8.1099      -10.1922             0      -4.48424      -7.64991             0       23.3177      0.521245             0       51.5583             0             0      0.209564   6.31832e-16     0.0888514        102047        103159        169852   1.15763e-15
    0.0383984       287.798       288.399      0.109808      -8.09253      -10.2291             0      -4.47146      -7.65277             0       23.3466      0.424248             0       51.7454             0             0      0.209693   6.29153e-16     0.0882907        102047        103159        169871   1.15273e-15
    0.0383734       287.796       288.398      0.109879      -8.07515       -10.266             0      -4.45869      -7.65562             0       23.3754      0.327252             0       51.9324             0             0      0.209822   6.26475e-16       0.08773        102046        103159        169890   1.14782e-15
    0.0383483       287.793       288.398      0.109951      -8.05778      -10.3029             0      -4.44591      -7.65848             0       23.4042      0.230255             0       52.1195             0             0      0.209951   6.23797e-16     0.0871694        102045        103159        169908   1.14291e-15
    0.0383233       287.791       288.398      0.110023       -8.0404      -10.3398             0      -4.43313      -7.66133             0        23.433      0.133259             0       52.3066             0             0       0.21008   6.21118e-16     0.0866087        102045        103158        169927     1.138e-15
    0.0382983       287.788       288.397      0.110094      -8.02303      -10.3767             0      -4.42035      -7.66419             0       23.4618     0.0362626             0       52.4936             0             0      0.210209    6.1844e-16      0.086048        102044        103158        169946    1.1331e-15
    0.0382733       287.786       288.397      0.110166      -8.00565      -10.4137             0      -4.40758      -7.66704             0       23.4906    -0.0607338             0       52.6807             0             0      0.210338   6.15762e-16     0.0854873        102044        103158        169964   1.12819e-15
    0.0382482       287.783       288.397      0.110238      -7.98828      -10.4506             0       -4.3948       -7.6699             0       23.5194      -0.15773             0       52.8678             0             0      0.210467   6.13083e-16     0.0849267        102043        103158        169983   1.12328e-15
    0.0382232       287.781       288.396      0.110309      -7.97091      -10.4875             0      -4.38202      -7.67275             0       23.5482     -0.254727             0       53.0548             0             0      0.210596   6.10405e-16      0.084366        102042        103158        170002   1.11838e-15
    0.0381982       287.778       288.396      0.110381      -7.95353      -10.5244             0      -4.36924      -7.67561             0       23.5771     -0.351723             0       53.2419             0             0      0.210725   6.07727e-16     0.0838053        102042        103157        170021   1.11347e-15
    0.0381732       287.776       288.396      0.110453      -7.93616      -10.5613             0      -4.35647      -7.67846             0       23.6059     -0.448719             0       53.4289             0             0      0.210854   6.05048e-16     0.0832446        102041        103157        170039   1.10856e-15
    0.0381481       287.773       288.395      0.110524      -7.91878      -10.5982             0      -4.34369      -7.68131             0       23.6347     -0.545716             0        53.616             0             0      0.210983    6.0237e-16      0.082684        102041        103157        170058   1.10365e-15
    0.0381231       287.771       288.395      0.110596      -7.90141      -10.6352             0      -4.33091      -7.68417             0       23.6635     -0.642712             0       53.8031             0             0      0.211112   5.99692e-16     0.0821233        102040        103157        170077   1.09875e-15
    0.0380981       287.769       288.395      0.110668      -7.88403      -10.6721             0      -4.31813      -7.68702             0       23.6923     -0.739709             0       53.9901             0             0      0.211241   5.97013e-16     0.0815626        102039        103157        170095   1.09384e-15
    0.0380731       287.766       288.394      0.110739      -7.86666       -10.709             0      -4.30536      -7.68988             0       23.7211     -0.836705             0       54.1772             0             0       0.21137   5.94335e-16     0.0810019        102039        103156        170114   1.08893e-15
     0.038048       287.764       288.394      0.110811      -7.84928      -10.7459             0      -4.29258      -7.69273             0       23.7499     -0.933701             0       54.3643             0             0      0.211498   5.91657e-16     0.0804413        102038        103156        170133   1.08403e-15
     0.038023       287.761       288.394      0.110882      -7.83191      -10.7828             0       -4.2798      -7.69559             0       23.7787       -1.0307             0       54.5513             0             0      0.211627   5.88978e-16     0.0798806        102037        103156        170152   1.07912e-15
     0.037998       287.759       288.393       0.11095       -7.8143      -10.8197             0      -4.26654      -7.69811             0       23.8054      -1.12586             0       54.7386             0             0      0.211754   5.86356e-16     0.0793288        102037        103156        170171   1.07431e-15
     0.037973       287.757       288.393      0.110966      -7.79394      -10.8567             0      -4.24772      -7.69686             0       23.8069          -1.2             0       54.9284             0             0      0.211858   5.84381e-16     0.0788796        102036        103156        170199    1.0707e-15
    0.0379479       287.755       288.393      0.110982      -7.77357      -10.8937             0      -4.22891       -7.6956             0       23.8085      -1.27413             0       55.1182             0             0      0.211961   5.82406e-16     0.0784304        102036        103155        170227   1.06708e-15
    0.0379229       287.753       288.392      0.110999      -7.75321      -10.9307             0      -4.21009      -7.69434             0         23.81      -1.34826             0       55.3079             0             0      0.212064   5.80431e-16     0.0779812        102035        103155        170255   1.06346e-15
    0.0378979       287.751       288.392      0.111015      -7.73285      -10.9677             0      -4.19127      -7.69308             0       23.8116      -1.42239             0       55.4977             0             0      0.212168   5.78456e-16      0.077532        102034        103155        170283   1.05984e-15
    0.0378729       287.749       288.392      0.111031      -7.71249      -11.0047             0      -4.17245      -7.69182             0       23.8131      -1.49652             0       55.6875             0             0      0.212271   5.76481e-16     0.0770828        102034        103155        170311   1.05622e-15
    0.0378478       287.748       288.392      0.111047      -7.69213      -11.0417             0      -4.15363      -7.69056             0       23.8147      -1.57065             0       55.8773             0             0      0.212374   5.74506e-16     0.0766336        102033        103155        170339    1.0526e-15
    0.0378228       287.746       288.391      0.111064      -7.67177      -11.0786             0      -4.13482       -7.6893             0       23.8162      -1.64479             0        56.067             0             0      0.212478   5.72531e-16     0.0761844        102032        103154        170367   1.04898e-15
    0.0377978       287.744       288.391       0.11108      -7.65141      -11.1156             0        -4.116      -7.68804             0       23.8178      -1.71892             0       56.2568             0             0      0.212581   5.70556e-16     0.0757351        102032        103154        170395   1.04536e-15
    0.0377728       287.742       288.391      0.111096      -7.63105      -11.1526             0      -4.09718      -7.68678             0       23.8193      -1.79305             0       56.4466             0             0      0.212684   5.68581e-16     0.0752859        102031        103154        170422   1.04175e-15
    0.0377477        287.74       288.391      0.111112      -7.61068      -11.1896             0      -4.07836      -7.68552             0       23.8209      -1.86718             0       56.6364             0             0      0.212788   5.66606e-16     0.0748367        102030        103154        170450   1.03813e-15
    0.0377227       287.738        288.39      0.111129      -7.59032      -11.2266             0      -4.05954      -7.68426             0       23.8225      -1.94131             0       56.8261             0             0      0.212891   5.64631e-16     0.0743875        102030        103154        170478   1.03451e-15