#           y             T         TMean   TPrime2Mean           U_x           U_y           U_z       UMean_x       UMean_y       UMean_z UPrime2Mea... UPrime2Mea... UPrime2Mea... UPrime2Mea... UPrime2Mea... UPrime2Mea...            O2           H2O          C3H8             p         pMean   pPrime2Mean           CO2
         0.03       287.883       288.606      0.302512       1.44354      -13.9256             0       3.38485       2.36999             0       19.4932      0.556002             0       36.5355             0             0      0.205126   9.37499e-16      0.108149        101947        103222        213429   1.71767e-15
    0.0301702       287.881       288.604      0.299575      0.952448      -13.9897             0       3.37028       2.40766             0       19.5737      0.294896             0       36.4349             0             0      0.204927   9.37785e-16      0.109013        101949        103222        212962    1.7182e-15
    0.0303403       287.879       288.602      0.296639      0.461357      -14.0537             0       3.35571       2.44534             0       19.6543     0.0337905             0       36.3342             0             0      0.204728   9.38071e-16      0.109877        101951        103222        212495   1.71872e-15
    0.0305105       287.876         288.6      0.293703    -0.0297337      -14.1177             0       3.34114       2.48301             0       19.7348     -0.227315             0       36.2336             0             0       0.20453   9.38357e-16      0.110741        101953        103222        212028   1.71925e-15
    0.0306807       287.874       288.598      0.290767     -0.520825      -14.1817             0       3.32657       2.52069             0       19.8154     -0.488421             0        36.133             0             0      0.204331   9.38643e-16      0.111605        101955        103223        211561   1.71977e-15
    0.0308509       287.872       288.596      0.287831      -1.01192      -14.2458             0         3.312       2.55836             0       19.8959     -0.749527             0       36.0323             0             0      0.204132   9.38929e-16      0.112469        101957        103223        211093   1.72029e-15
     0.031021        287.87       288.594      0.285044      -1.49652      -14.3088             0       3.29979       2.59623             0       19.9973      -1.00638             0       35.9245             0             0      0.203938   9.39201e-16      0.113313        101959        103223        210618   1.72079e-15
    0.0311912       287.871       288.592       0.28332      -1.93513      -14.3649             0       3.30441       2.63543             0       20.2464      -1.23309             0       35.7658             0             0      0.203777   9.39369e-16      0.114013        101961        103224        210084    1.7211e-15
    0.0313614       287.871       288.589      0.281596      -2.37374      -14.4209             0       3.30902       2.67464             0       20.4954       -1.4598             0        35.607             0             0      0.203616   9.39537e-16      0.114714        101964        103224        209549   1.72141e-15
    0.0315315       287.872       288.586      0.279872      -2.81234       -14.477             0       3.31364       2.71384             0       20.7445       -1.6865             0       35.4483             0             0      0.203454   9.39705e-16      0.115415        101966        103224        209015   1.72172e-15
    0.0317017       287.872       288.584      0.278148      -3.25095       -14.533             0       3.31825       2.75305             0       20.9935      -1.91321             0       35.2895             0             0      0.203293   9.39873e-16      0.116116        101969        103225        208481   1.72202e-15
    0.0318719       287.873       288.581      0.276424      -3.68956      -14.5891             0       3.32287       2.79225             0       21.2426      -2.13992             0       35.1308             0             0      0.203132   9.40042e-16      0.116817        101971        103225        207946   1.72233e-15
     0.032042       287.874       288.579       0.27504      -4.10962       -14.639             0         3.331       2.83112             0       21.5405      -2.34683             0       34.9636             0             0       0.20296   9.40175e-16      0.117563        101974        103226        207407   1.72258e-15
    0.0322122       287.879       288.576       0.27469      -4.47316      -14.6702             0       3.34984       2.86897             0       21.9874      -2.49343             0        34.771             0             0      0.202757   9.40203e-16      0.118447        101977        103226        206852   1.72263e-15
    0.0323824       287.884       288.574       0.27434       -4.8367      -14.7014             0       3.36869       2.90682             0       22.4342      -2.64003             0       34.5784             0             0      0.202554   9.40232e-16       0.11933        101980        103227        206297   1.72268e-15
    0.0325526       287.888       288.571      0.273991      -5.20024      -14.7326             0       3.38754       2.94467             0       22.8811      -2.78663             0       34.3857             0             0      0.202351    9.4026e-16      0.120214        101983        103227        205742   1.72273e-15
    0.0327227       287.893       288.568      0.273641      -5.56378      -14.7637             0       3.40638       2.98252             0        23.328      -2.93322             0       34.1931             0             0      0.202148   9.40288e-16      0.121098        101986        103228        205187   1.72278e-15
    0.0328929       287.898       288.566      0.273291      -5.92732      -14.7949             0       3.42523       3.02037             0       23.7749      -3.07982             0       34.0005             0             0      0.201944   9.40317e-16      0.121981        101988        103229        204633   1.72284e-15
    0.0330631       287.904       288.563      0.273346      -6.25036      -14.8099             0       3.44654       3.05698             0       24.3307      -3.18907             0       33.8027             0             0      0.201703   9.40265e-16      0.123031        101992        103229        204078   1.72274e-15
    0.0332332       287.915        288.56      0.274089      -6.50459      -14.7974             0       3.47205       3.09148             0       25.0714      -3.23487             0        33.596             0             0      0.201396   9.40078e-16      0.124363        101995        103230        203523    1.7224e-15
    0.0334034       287.925       288.558      0.274831      -6.75882      -14.7849             0       3.49755       3.12598             0       25.8122      -3.28068             0       33.3893             0             0       0.20109   9.39892e-16      0.125695        101998        103231        202968   1.72206e-15
    0.0335736       287.935       288.555      0.275574      -7.01305      -14.7724             0       3.52305       3.16048             0        26.553      -3.32649             0       33.1827             0             0      0.200784   9.39705e-16      0.127028        102002        103231        202413   1.72171e-15
    0.0337437       287.945       288.552      0.276316      -7.26728        -14.76             0       3.54855       3.19498             0       27.2937      -3.37229             0        32.976             0             0      0.200477   9.39518e-16       0.12836        102005        103232        201859   1.72137e-15
    0.0339139       287.955        288.55      0.277059      -7.52151      -14.7475             0       3.57405       3.22949             0       28.0345       -3.4181             0       32.7694             0             0      0.200171   9.39331e-16      0.129692        102009        103233        201304   1.72103e-15
    0.0340841       287.968       288.547      0.278107      -7.70953      -14.7002             0       3.60135       3.26131             0       28.9222      -3.41484             0       32.5539             0             0      0.199836   9.39047e-16      0.131149        102012        103233        200748   1.72051e-15
    0.0342543       287.983       288.545      0.279469      -7.82976      -14.6174             0       3.63048       3.29041             0       29.9604      -3.36136             0       32.3295             0             0      0.199471   9.38664e-16      0.132734        102016        103234        200192   1.71981e-15
    0.0344244       287.998       288.543       0.28083         -7.95      -14.5346             0       3.65961        3.3195             0       30.9985      -3.30787             0       32.1051             0             0      0.199106   9.38281e-16       0.13432        102020        103235        199635   1.71911e-15
    0.0345946       288.014       288.541      0.282192      -8.07023      -14.4517             0       3.68875       3.34859             0       32.0367      -3.25439             0       31.8807             0             0      0.198742   9.37898e-16      0.135905        102024        103236        199079    1.7184e-15
    0.0347648       288.029       288.538      0.283554      -8.19046      -14.3689             0       3.71788       3.37768             0       33.0749       -3.2009             0       31.6562             0             0      0.198377   9.37515e-16       0.13749        102028        103237        198522    1.7177e-15
    0.0349349       288.044       288.536      0.284915       -8.3107      -14.2861             0       3.74701       3.40677             0        34.113      -3.14742             0       31.4318             0             0      0.198013   9.37132e-16      0.139075        102031        103238        197966     1.717e-15
    0.0351051       288.058       288.534      0.286092      -8.35044      -14.1503             0       3.77893       3.43181             0       35.2437      -3.06238             0       31.1865             0             0      0.197715   9.36747e-16      0.140371        102035        103239        197410    1.7163e-15
    0.0352753       288.071       288.533      0.287155      -8.34034      -13.9817             0       3.81256       3.45435             0       36.4317      -2.95782             0       30.9282             0             0      0.197458   9.36361e-16      0.141488        102039        103240        196855   1.71559e-15
    0.0354454       288.083       288.532      0.288218      -8.33025      -13.8132             0        3.8462       3.47689             0       37.6196      -2.85325             0         30.67             0             0      0.197201   9.35974e-16      0.142605        102043        103241        196300   1.71488e-15
    0.0356156       288.096        288.53      0.289281      -8.32016      -13.6446             0       3.87984       3.49942             0       38.8076      -2.74868             0       30.4117             0             0      0.196944   9.35587e-16      0.143722        102048        103242        195745   1.71417e-15
    0.0357858       288.109       288.529      0.290344      -8.31007      -13.4761             0       3.91348       3.52196             0       39.9956      -2.64412             0       30.1534             0             0      0.196687   9.35201e-16      0.144839        102052        103243        195190   1.71346e-15
     0.035956       288.122       288.528      0.291407      -8.29998      -13.3076             0       3.94711        3.5445             0       41.1836      -2.53955             0       29.8952             0             0       0.19643   9.34814e-16      0.145956        102056        103244        194635   1.71275e-15
    0.0361261       288.129       288.527      0.291401      -8.23078      -13.0894             0       3.98414        3.5618             0       42.3608      -2.45222             0       29.6086             0             0      0.196296   9.34572e-16      0.146538        102060        103245        194095   1.71231e-15
    0.0362963       288.134       288.527      0.291023      -8.14094       -12.854             0       4.02234       3.57728             0       43.5344      -2.37092             0       29.3122             0             0      0.196206    9.3438e-16      0.146932        102064        103246        193560   1.71196e-15
    0.0364665        288.14       288.527      0.290644       -8.0511      -12.6185             0       4.06055       3.59276             0        44.708      -2.28961             0       29.0157             0             0      0.196115   9.34188e-16      0.147326        102067        103247        193025   1.71161e-15
    0.0366366       288.145       288.526      0.290266      -7.96126      -12.3831             0       4.09875       3.60825             0       45.8816       -2.2083             0       28.7193             0             0      0.196024   9.33996e-16       0.14772        102071        103248        192490   1.71126e-15
    0.0368068        288.15       288.526      0.289887      -7.87142      -12.1477             0       4.13696       3.62373             0       47.0551        -2.127             0       28.4228             0             0      0.195934   9.33804e-16      0.148114        102075        103249        191954    1.7109e-15
     0.036977       288.156       288.526      0.289509      -7.78158      -11.9122             0       4.17517       3.63921             0       48.2287      -2.04569             0       28.1263             0             0      0.195843   9.33612e-16      0.148508        102079        103251        191419   1.71055e-15
    0.0371471       288.155       288.526      0.287301      -7.70891       -11.671             0       4.21748       3.64684             0       49.2603      -1.99289             0       27.7954             0             0      0.195876    9.3368e-16      0.148364        102083        103252        190919   1.71068e-15
    0.0373173       288.153       288.527      0.284807      -7.63894      -11.4288             0       4.26043       3.65324             0       50.2697      -1.94456             0        27.459             0             0      0.195929   9.33789e-16      0.148136        102086        103253        190424   1.71088e-15
    0.0374875       288.151       288.527      0.282313      -7.56896      -11.1867             0       4.30338       3.65965             0       51.2791      -1.89622             0       27.1226             0             0      0.195981   9.33898e-16      0.147907        102090        103254        189928   1.71107e-15
    0.0376577       288.149       288.528       0.27982      -7.49898      -10.9445             0       4.34633       3.66606             0       52.2885      -1.84789             0       26.7862             0             0      0.196034   9.34006e-16      0.147679        102093        103256        189433   1.71127e-15
    0.0378278       288.147       288.528      0.277326      -7.42901      -10.7024             0       4.38929       3.67246             0       53.2979      -1.79955             0       26.4499             0             0      0.196086   9.34115e-16       0.14745        102097        103257        188938   1.71147e-15
     0.037998       288.145       288.529      0.274832      -7.35903      -10.4602             0       4.43224       3.67887             0       54.3073      -1.75121             0       26.1135             0             0      0.196139   9.34224e-16      0.147222        102100        103258        188443   1.71167e-15
    0.0381682       288.131       288.529      0.270367      -7.39137      -10.2718             0       4.48059       3.67362             0       55.0317      -1.66358             0       25.7355             0             0      0.196407   9.35296e-16      0.146054        102103        103260        188012   1.71364e-15
    0.0383383       288.117        288.53      0.265878      -7.42492       -10.084             0       4.52901       3.66823             0       55.7527      -1.57549             0        25.357             0             0      0.196679   9.36379e-16      0.144876        102106        103261        187582   1.71562e-15
    0.0385085       288.104        288.53       0.26139      -7.45848      -9.89616             0       4.57742       3.66284             0       56.4738      -1.48739             0       24.9785             0             0       0.19695   9.37463e-16      0.143697        102109        103262        187152   1.71761e-15
    0.0386787        288.09       288.531      0.256901      -7.49203      -9.70836             0       4.62584       3.65745             0       57.1948      -1.39929             0       24.6001             0             0      0.197221   9.38546e-16      0.142519        102113        103264        186722   1.71959e-15
    0.0388488       288.076       288.531      0.252412      -7.52559      -9.52055             0       4.67426       3.65206             0       57.9159       -1.3112             0       24.2216             0             0      0.197492    9.3963e-16       0.14134        102116        103265        186292   1.72158e-15
     0.039019       288.062       288.532      0.247819      -7.56954      -9.33963             0       4.72299       3.64524             0       58.6037      -1.21147             0       23.8385             0             0      0.197775   9.40875e-16      0.140108        102119        103266        185871   1.72386e-15
    0.0391892        288.04       288.532      0.242393      -7.69611      -9.21336             0       4.77417       3.62707             0       59.0273      -1.01927             0       23.4194             0             0      0.198157    9.4341e-16      0.138449        102122        103268        185521    1.7285e-15
    0.0393594       288.018       288.532      0.236967      -7.82268      -9.08709             0       4.82536        3.6089             0        59.451     -0.827083             0       23.0002             0             0      0.198538   9.45945e-16      0.136791        102125        103269        185171   1.73315e-15
    0.0395295       287.996       288.532      0.231541      -7.94924      -8.96082             0       4.87654       3.59074             0       59.8746     -0.634891             0       22.5811             0             0       0.19892    9.4848e-16      0.135132        102128        103271        184820   1.73779e-15
    0.0396997       287.974       288.532      0.226115      -8.07581      -8.83455             0       4.92773       3.57257             0       60.2983     -0.442699             0       22.1619             0             0      0.199301   9.51015e-16      0.133473        102131        103272        184470   1.74244e-15
    0.0398699       287.952       288.532      0.220689      -8.20238      -8.70829             0       4.97891        3.5544             0       60.7219     -0.250507             0       21.7428             0             0      0.199683    9.5355e-16      0.131815        102134        103273        184120   1.74708e-15
      0.04004       287.932       288.531      0.215447      -8.32684      -8.58671             0        5.0298       3.53385             0       61.0939    -0.0387717             0       21.3171             0             0      0.200026   9.56252e-16       0.13032        102137        103275        183789   1.75203e-15
    0.0402102       287.917       288.531      0.210801      -8.44444       -8.4804             0        5.0797       3.50552             0       61.2978      0.236477             0       20.8703             0             0      0.200248   9.59498e-16      0.129358        102140        103276        183520   1.75798e-15
    0.0403804       287.901        288.53      0.206156      -8.56203      -8.37409             0        5.1296       3.47719             0       61.5017      0.511726             0       20.4236             0             0      0.200469   9.62745e-16      0.128395        102143        103278        183250   1.76393e-15
    0.0405506       287.886       288.529       0.20151      -8.67963      -8.26778             0       5.17951       3.44886             0       61.7057      0.786974             0       19.9768             0             0       0.20069   9.65992e-16      0.127433        102146        103279        182980   1.76988e-15
    0.0407207       287.871       288.529      0.196864      -8.79723      -8.16147             0       5.22941       3.42053             0       61.9096       1.06222             0         19.53             0             0      0.200912   9.69238e-16       0.12647        102149        103280        182711   1.77583e-15
    0.0408909       287.855       288.528      0.192219      -8.91483      -8.05516             0       5.27932        3.3922             0       62.1135       1.33747             0       19.0832             0             0      0.201133   9.72485e-16      0.125508        102152        103282        182441   1.78177e-15
    0.0410611       287.844       288.527      0.188077      -8.99297      -7.94289             0        5.3277       3.36169             0       62.2734       1.60989             0       18.6342             0             0      0.201295    9.7597e-16      0.124802        102155        103283        182198   1.78816e-15
    0.0412312       287.839       288.526      0.184836       -9.0006      -7.81998             0       5.37336       3.32727             0       62.3546       1.87726             0       18.1813             0             0      0.201352   9.79883e-16      0.124556        102158        103285        182002   1.79533e-15
    0.0414014       287.835       288.525      0.181595      -9.00824      -7.69706             0       5.41902       3.29285             0       62.4358       2.14463             0       17.7283             0             0      0.201409   9.83796e-16      0.124309        102160        103286        181806    1.8025e-15
    0.0415716        287.83       288.524      0.178354      -9.01587      -7.57415             0       5.46469       3.25843             0        62.517         2.412             0       17.2754             0             0      0.201465   9.87708e-16      0.124063        102163        103288        181611   1.80967e-15
    0.0417417       287.825       288.523      0.175112      -9.02351      -7.45124             0       5.51035         3.224             0       62.5981       2.67937             0       16.8224             0             0      0.201522   9.91621e-16      0.123817        102166        103289        181415   1.81683e-15
    0.0419119       287.821       288.522      0.171871      -9.03114      -7.32833             0       5.55601       3.18958             0       62.6793       2.94674             0       16.3695             0             0      0.201579   9.95534e-16       0.12357        102169        103291        181219     1.824e-15
    0.0420821       287.819        288.52      0.169429      -8.98828      -7.19449             0       5.59694       3.15342             0       62.7413       3.16825             0       15.9214             0             0      0.201595   9.99856e-16      0.123498        102172        103292        181054   1.83192e-15
    0.0422523       287.819       288.518      0.167843      -8.89122      -7.04893             0       5.63279       3.11537             0       62.7827       3.34054             0       15.4786             0             0      0.201569   1.00462e-15      0.123613        102175        103294        180922   1.84065e-15
    0.0424224        287.82       288.516      0.166258      -8.79415      -6.90337             0       5.66864       3.07733             0       62.8242       3.51283             0       15.0357             0             0      0.201543   1.00938e-15      0.123727        102177        103295        180791   1.84937e-15
    0.0425926       287.821       288.514      0.164672      -8.69709      -6.75781             0       5.70449       3.03929             0       62.8656       3.68512             0       14.5929             0             0      0.201516   1.01414e-15      0.123842        102180        103296        180659   1.85809e-15
    0.0427628       287.821       288.512      0.163087      -8.60003      -6.61225             0       5.74034       3.00125             0        62.907       3.85741             0         14.15             0             0       0.20149    1.0189e-15      0.123956        102183        103298        180527   1.86682e-15
    0.0429329       287.822        288.51      0.161501      -8.50297      -6.46668             0       5.77618        2.9632             0       62.9484        4.0297             0       13.7072             0             0      0.201464   1.02366e-15      0.124071        102185        103299        180396   1.87554e-15
    0.0431031       287.825       288.507      0.161039      -8.40849      -6.30946             0         5.802       2.92272             0       62.9304       4.13354             0       13.2647             0             0      0.201361   1.02911e-15      0.124516        102188        103301        180302   1.88552e-15
    0.0432733       287.829       288.504      0.161308       -8.3157      -6.14465             0       5.82128       2.88064             0       62.8739       4.19286             0       12.8225             0             0      0.201209   1.03501e-15      0.125177        102190        103302        180234   1.89632e-15
    0.0434434       287.833       288.501      0.161577       -8.2229      -5.97984             0       5.84056       2.83856             0       62.8174       4.25218             0       12.3803             0             0      0.201057    1.0409e-15      0.125837        102192        103303        180166   1.90712e-15
    0.0436136       287.837       288.498      0.161846       -8.1301      -5.81504             0       5.85984       2.79649             0       62.7608       4.31149             0       11.9381             0             0      0.200905   1.04679e-15      0.126498        102195        103305        180097   1.91792e-15
    0.0437838       287.841       288.495      0.162115      -8.03731      -5.65023             0       5.87912       2.75441             0       62.7043       4.37081             0       11.4959             0             0      0.200753   1.05269e-15      0.127159        102197        103306        180029   1.92872e-15
     0.043954       287.845       288.492      0.162384      -7.94451      -5.48542             0        5.8984       2.71233             0       62.6477       4.43013             0       11.0536             0             0      0.200602   1.05858e-15      0.127819        102200        103308        179960   1.93952e-15
    0.0441241        287.85       288.488      0.163542      -7.90545      -5.31243             0       5.90458       2.66392             0       62.3996       4.42904             0       10.6105             0             0      0.200344   1.06521e-15      0.128941        102202        103309        179941   1.95166e-15
    0.0442943       287.855       288.483       0.16503      -7.88631       -5.1364             0       5.90591       2.61315             0       62.0803       4.40553             0       10.1671             0             0      0.200046   1.07211e-15      0.130233        102204        103310        179941    1.9643e-15
    0.0444645        287.86       288.479      0.166518      -7.86717      -4.96037             0       5.90724       2.56239             0       61.7611       4.38203             0       9.72362             0             0      0.199749   1.07901e-15      0.131525        102206        103312        179941   1.97694e-15
    0.0446346       287.865       288.475      0.168005      -7.84804      -4.78434             0       5.90856       2.51162             0       61.4418       4.35853             0       9.28017             0             0      0.199452   1.08591e-15      0.132818        102208        103313        179940   1.98958e-15
    0.0448048        287.87        288.47      0.169493       -7.8289      -4.60832             0       5.90989       2.46085             0       61.1226       4.33503             0       8.83672             0             0      0.199155   1.09281e-15       0.13411        102210        103314        179940   2.00222e-15
     0.044975       287.875       288.466       0.17098      -7.80976      -4.43229             0       5.91122       2.41008             0       60.8033       4.31152             0       8.39326             0             0      0.198857    1.0997e-15      0.135402        102212        103316        179939   2.01486e-15
    0.0451451       287.875       288.461      0.172711      -7.81875       -4.2583             0       5.89777       2.34761             0       60.2101       4.22692             0       7.96685             0             0      0.198359   1.10983e-15       0.13757        102213        103317        179990   2.03342e-15
    0.0453153       287.875       288.456      0.174484      -7.83259      -4.08466             0       5.88178       2.28311             0       59.5697       4.13178             0       7.54337             0             0      0.197825   1.12052e-15      0.139889        102215        103318        180050     2.053e-15
    0.0454855       287.874        288.45      0.176256      -7.84643      -3.91102             0       5.86579       2.21861             0       58.9292       4.03665             0       7.11989             0             0      0.197292   1.13121e-15      0.142209        102216        103319        180110   2.07258e-15