#           y             T         TMean   TPrime2Mean           U_x           U_y           U_z       UMean_x       UMean_y       UMean_z UPrime2Mea... UPrime2Mea... UPrime2Mea... UPrime2Mea... UPrime2Mea... UPrime2Mea...            O2           H2O          C3H8             p         pMean   pPrime2Mean           CO2
  1.11022e-19       287.679       288.124      0.124768       22.9454  -5.10383e-16             0       19.5695  -2.01193e-16             0        24.904  -4.76928e-17             0   4.63011e-16             0             0      0.229886   5.97366e-18   0.000496007        102271        103256        173143   1.09449e-17
  0.000500501       287.682       288.126      0.126633       22.9267     -0.181877             0       19.5725     0.0607821             0       24.9585    -0.0328948             0     0.0549256             0             0       0.22967   9.85034e-18    0.00143288        102271        103256        173097   1.80477e-17
     0.001001       287.685       288.128      0.128507        22.908     -0.363777             0       19.5756      0.121564             0       25.0133    -0.0657759             0      0.110012             0             0      0.229453   1.37482e-17    0.00237881        102271        103256        173050   2.51892e-17
    0.0015015       287.702       288.135       0.13515        22.846     -0.556781             0        19.586      0.182261             0       25.1715    -0.0918202             0      0.245543             0             0      0.228195   2.81956e-17     0.0078499        102272        103256        172918   5.16596e-17
     0.002002        287.72       288.142      0.141801       22.7837     -0.749874             0       19.5964      0.242957             0       25.3305     -0.117872             0      0.381507             0             0      0.226927   4.26939e-17      0.013361        102273        103256        172787   7.82231e-17
    0.0025025       287.768       288.154      0.150177       22.6677     -0.964779             0       19.6136      0.303398             0       25.6863     -0.145682             0      0.625226             0             0      0.223367   6.98474e-17     0.0288373        102274        103255        172606   1.27973e-16
     0.003003       287.816       288.167      0.158535       22.5519       -1.1799             0       19.6309      0.363838             0       26.0431     -0.173415             0      0.869671             0             0      0.219801   9.69961e-17     0.0443425        102275        103255        172425   1.77715e-16
    0.0035035       287.856       288.185      0.163722       22.4664      -1.42985             0       19.6611      0.424095             0       26.5704       -0.1883             0       1.23439             0             0      0.215134   1.23337e-16     0.0646365        102276        103254        172235   2.25976e-16
     0.004004       287.896       288.203      0.168871       22.3826      -1.68025             0       19.6914      0.484367             0       27.0964     -0.202995             0       1.60009             0             0      0.210475   1.49575e-16     0.0848908        102277        103254        172044   2.74049e-16
    0.0045045        287.87       288.215      0.169323        22.507      -1.98692             0       19.7129      0.546573             0       27.4543     -0.194067             0       2.08759             0             0      0.206948   1.63073e-16      0.100226        102278        103253        171853    2.9878e-16
   0.00500501       287.843       288.226      0.169736       22.6334       -2.2936             0       19.7339      0.608804             0       27.8072     -0.184439             0       2.57592             0             0       0.20343   1.76504e-16      0.115524        102279        103252        171662   3.23388e-16
   0.00550551       287.783       288.231       0.16636       22.9478      -2.60041             0        19.712      0.673417             0       27.6593     -0.105548             0       3.14625             0             0      0.200776   1.83245e-16      0.127059        102281        103251        171466   3.35739e-16
   0.00600601       287.723       288.236      0.162992       23.2588      -2.90543             0       19.6889      0.738096             0       27.5047    -0.0246706             0       3.71643             0             0      0.198113   1.90031e-16      0.138638        102282        103250        171269   3.48173e-16
   0.00650651       287.722       288.241      0.160252       23.3007      -3.06348             0        19.577      0.808311             0       26.7964      0.219765             0       4.27411             0             0      0.194636   2.00574e-16      0.153755        102285        103250        171065    3.6749e-16
   0.00700701       287.721       288.247      0.157541       23.3317      -3.21764             0       19.4631      0.878608             0       26.0849      0.468201             0       4.83103             0             0      0.191135   2.11298e-16      0.168979        102287        103249        170861   3.87138e-16
   0.00750751        287.79       288.259      0.156808       22.6045      -3.09779             0       19.2168       0.95473             0       25.1549      0.998386             0        5.3337             0             0        0.1859   2.34731e-16      0.191738        102290        103248        170608   4.30072e-16
   0.00800801        287.86       288.271      0.156145       21.8659       -2.9766             0       18.9684       1.03079             0       24.2277       1.53023             0       5.83611             0             0      0.180665   2.58409e-16        0.2145        102294        103248        170356   4.73454e-16
   0.00850851       287.943        288.29      0.159878       20.4349      -2.77201             0       18.5934       1.10285             0       23.4753       2.16408             0       6.32236             0             0      0.175379    2.9715e-16      0.237483        102297        103247        170056   5.44434e-16
   0.00900901       288.027        288.31       0.16369        19.003       -2.5685             0        18.217       1.17436             0       22.7319       2.78968             0       6.81098             0             0       0.17014   3.35933e-16      0.260262        102301        103246        169757   6.15493e-16
   0.00950951       288.087       288.325      0.171763       17.5298      -2.42317             0       17.7679       1.21523             0       22.4843        2.9656             0       7.42868             0             0      0.167465   3.77085e-16      0.271893        102304        103245        169479    6.9089e-16
      0.01001       288.146       288.341      0.179801       16.0676      -2.28205             0       17.3192       1.25545             0       22.2615       3.13015             0       8.05098             0             0      0.164871   4.18129e-16      0.283171        102307        103243        169203   7.66091e-16
    0.0105105        288.16       288.345      0.186125       15.1447      -2.34708             0       16.8879       1.26342             0        23.254       2.73745             0       8.89878             0             0      0.166243   4.53931e-16      0.277206        102309        103242        169023   8.31686e-16
     0.011011       288.173       288.348      0.192407       14.2361      -2.42325             0       16.4569       1.27115             0       24.2886       2.34239             0       9.74866             0             0      0.167708   4.89212e-16      0.270833        102311        103241        168847   8.96328e-16
    0.0115115       288.089       288.335      0.196782       13.9685       -2.9944             0       16.0424       1.26816             0       27.1942       1.84256             0       10.6908             0             0      0.173335   5.01398e-16      0.246369        102312        103239        168857   9.18655e-16
     0.012012       288.006       288.323      0.201299       13.7091      -3.57158             0       15.6272       1.26533             0       30.1377         1.346             0       11.6327             0             0      0.178954   5.12851e-16      0.221938        102313        103238        168873   9.39638e-16
    0.0125125       287.904       288.304      0.211533       13.7818      -4.39462             0       15.1854       1.26889             0       34.6241      0.982117             0       12.5673             0             0      0.184264   4.94448e-16      0.198853        102312        103236        169148   9.05921e-16
     0.013013       287.805       288.286       0.22201       13.8565      -5.21621             0        14.745       1.27206             0       39.1131      0.615955             0       13.5068             0             0      0.189475   4.76032e-16      0.176198        102311        103234        169431   8.72179e-16
    0.0135135       287.794       288.277      0.241601       14.0059      -5.98357             0       14.3563       1.26095             0       43.6977      0.164341             0        14.634             0             0      0.190983   4.57087e-16      0.169638        102309        103232        169990   8.37468e-16
     0.014014       287.784       288.267      0.261246       14.1628      -6.75176             0         13.97       1.24934             0       48.2488     -0.291393             0       15.7694             0             0      0.192441    4.3847e-16      0.163298        102307        103230        170557   8.03358e-16
    0.0145145       287.817       288.266      0.282775       14.5794      -7.54866             0       13.6701       1.22048             0       51.6391     -0.890114             0       17.1919             0             0      0.192147   4.31229e-16       0.16458        102303        103228        171402   7.90092e-16
     0.015015        287.85       288.266      0.304192       15.0026      -8.34745             0       13.3706       1.19172             0       54.9867      -1.48672             0       18.6153             0             0      0.191841   4.24219e-16       0.16591        102298        103226        172256   7.77249e-16
    0.0155155       287.884       288.268      0.321953       15.6414      -9.20738             0        13.087       1.16638             0       56.9549      -2.01502             0       20.0688             0             0      0.191174   4.24687e-16      0.168809        102294        103223        173391   7.78106e-16
     0.016016       287.918       288.271      0.339582       16.2793      -10.0664             0       12.8034       1.14164             0       58.8858      -2.53739             0       21.5186             0             0      0.190509   4.25225e-16      0.171701        102289        103221        174535   7.79091e-16
    0.0165165       287.939       288.277      0.353197       16.8935      -10.8966             0       12.5235       1.13519             0       59.6886      -2.88039             0       22.8608             0             0      0.189885   4.27886e-16      0.174415        102283        103219        175916   7.83967e-16
     0.017017        287.96       288.283      0.366672       17.5061      -11.7254             0       12.2441       1.12953             0       60.4678       -3.2191             0       24.2004             0             0       0.18927   4.30747e-16      0.177086        102276        103216        177302   7.89209e-16
    0.0175175       287.969       288.293      0.376167       18.0714      -12.5102             0       11.9816       1.14625             0       60.5792      -3.43582             0       25.4673             0             0      0.188929   4.39289e-16       0.17857        102270        103214        178842   8.04859e-16
     0.018018       287.976       288.303      0.385499       18.6327      -13.2916             0       11.7189       1.16391             0       60.6689      -3.65067             0       26.7332             0             0      0.188608   4.48504e-16      0.179967        102263        103213        180386   8.21742e-16
    0.0185185       287.967       288.315      0.390451       19.0872      -13.9829             0       11.4526        1.2065             0       60.1787      -3.81574             0       27.9719             0             0      0.188825   4.75736e-16      0.179021        102256        103211        182030   8.71636e-16
     0.019019       287.956       288.326       0.39523       19.5339      -14.6682             0       11.1852       1.25016             0       59.6538      -3.97847             0       29.2085             0             0      0.189067   5.03426e-16      0.177971        102250        103209        183676   9.22371e-16
    0.0195195       287.928       288.338       0.39561       19.7819       -15.202             0       10.8926        1.3206             0       58.2525      -4.08214             0       30.3942             0             0       0.18991    5.4273e-16      0.174303        102243        103207        185395   9.94383e-16
      0.02002         287.9       288.349      0.395817       20.0205      -15.7283             0       10.5992       1.39234             0       56.8193      -4.18156             0       31.5768             0             0       0.19076   5.81732e-16      0.170607        102237        103205        187114   1.06584e-15
    0.0205205       287.868       288.358      0.391889       20.0347      -16.0733             0       10.2852       1.49523             0       54.6201      -4.17896             0        32.688             0             0      0.191757   6.13484e-16      0.166274        102233        103203        188857   1.12402e-15
     0.021021       287.836       288.368      0.387955       20.0393      -16.4106             0       9.97172       1.59945             0       52.4136      -4.16981             0       33.7978             0             0      0.192741   6.44819e-16      0.161996        102228        103201        190598   1.18143e-15
    0.0215215       287.809       288.378      0.383908       19.8256      -16.5706             0       9.66841       1.73406             0       50.0406      -4.01153             0        34.878             0             0      0.193436   6.66646e-16      0.158973        102226        103200        192285   1.22142e-15
     0.022022       287.781       288.388      0.380021        19.603      -16.7238             0       9.36712       1.86992             0       47.6773      -3.84654             0       35.9588             0             0      0.194127   6.88733e-16       0.15597        102224        103198        193966   1.26189e-15
    0.0225225       287.745       288.398       0.37965       19.1889       -16.728             0       9.10969       2.03286             0       45.5261      -3.53594             0       37.0496             0             0       0.19472   7.16487e-16      0.153391        102223        103197        195518   1.31274e-15
     0.023023       287.708       288.407      0.379294       18.7671      -16.7264             0       8.85494       2.19675             0       43.3765      -3.22019             0       38.1446             0             0      0.195326   7.44854e-16      0.150757        102223        103196        197061   1.36471e-15
    0.0235235       287.645       288.413      0.379268       18.1845      -16.6033             0       8.65582       2.38026             0       41.2592      -2.79761             0       39.3252             0             0      0.196192    7.8595e-16       0.14699        102224        103194        198421   1.44001e-15
     0.024024       287.581       288.419      0.379024       17.5945      -16.4748             0       8.45886       2.56464             0       39.1345      -2.36662             0       40.5115             0             0      0.197074   8.26963e-16      0.143155        102226        103193        199768   1.51515e-15
    0.0245245       287.501       288.422      0.374476       16.8563      -16.2398             0       8.30482       2.76644             0       36.8609      -1.76917             0       41.8115             0             0      0.198265   8.66344e-16      0.137979        102230        103193        200857   1.58731e-15
     0.025025       287.422       288.425      0.369755       16.1112      -16.0003             0       8.15239       2.96923             0       34.5919      -1.15637             0       43.1174             0             0       0.19945   9.05006e-16      0.132825        102234        103192        201926   1.65814e-15
    0.0255255       287.361       288.425      0.361744       15.2351      -15.6753             0       8.03034       3.19052             0       32.4113      -0.25187             0        44.534             0             0      0.200543   9.30008e-16      0.128073        102240        103191        202607   1.70395e-15
     0.026026       287.302       288.425      0.353768       14.3538      -15.3476             0       7.90971       3.41275             0       30.2622      0.672527             0        45.958             0             0      0.201613   9.54345e-16      0.123421        102246        103190        203260   1.74854e-15
    0.0265265       287.276       288.422      0.346445       13.3768      -14.9715             0       7.81477         3.652             0       28.6898       1.95972             0       47.5153             0             0       0.20226   9.66554e-16      0.120608        102253        103190        203418   1.77091e-15
     0.027027       287.253       288.418      0.339226       12.3951      -14.5931             0       7.72055       3.89179             0       27.1691       3.26752             0       49.0786             0             0      0.202888   9.78323e-16      0.117879        102261        103190        203546   1.79247e-15
    0.0275275       287.257       288.412      0.333843       11.3306      -14.1718             0       7.63899       4.14104             0       26.5532       4.93631             0       50.7483             0             0      0.203171   9.82386e-16      0.116649        102268        103190        203158   1.79991e-15
     0.028028       287.264       288.406      0.328498         10.26      -13.7455             0       7.55714       4.39026             0       25.9873       6.61952             0       52.4138             0             0      0.203441   9.86191e-16      0.115474        102276        103190        202743   1.80689e-15
    0.0285285        287.31       288.398      0.323781       9.08751      -13.2341             0       7.47031       4.63907             0       26.2641       8.54578             0       54.0088             0             0      0.203499   9.85637e-16      0.115221        102284        103190        201869   1.80587e-15
     0.029029       287.358       288.391      0.319015       7.91071      -12.7168             0       7.38266       4.88761             0       26.5768       10.4741             0       55.5864             0             0       0.20354   9.84937e-16      0.115043        102291        103190        200975   1.80459e-15
    0.0295295        287.44       288.385      0.313432       6.66432      -12.1038             0       7.28152       5.13161             0       27.4716       12.4361             0       56.8813             0             0      0.203306   9.81861e-16      0.116062        102297        103191        199754   1.79895e-15
      0.03003       287.521       288.379      0.307831       5.42087      -11.4887             0       7.17982        5.3754             0       28.3912       14.3878             0       58.1535             0             0       0.20305   9.78804e-16      0.117173        102304        103192        198521   1.79335e-15
    0.0305305       287.589       288.374      0.301947       4.22356      -10.8403             0       7.06916       5.61605             0        29.699        16.177             0       59.0696             0             0      0.202461   9.76038e-16      0.119736        102308        103193        197084   1.78828e-15
     0.031031       287.655       288.369      0.296103       3.03729       -10.194             0       6.95834       5.85649             0       31.0287       17.9481             0       59.9654             0             0      0.201836   9.73335e-16      0.122452        102313        103194        195644   1.78333e-15
    0.0315315       287.695       288.364      0.290854       2.01815       -9.5799             0       6.84498        6.0938             0       32.6906       19.4451             0       60.5548             0             0       0.20068   9.71583e-16       0.12748        102315        103195        194143   1.78012e-15
     0.032032       287.735       288.359      0.285722       1.01508       -8.9695             0       6.73146       6.33053             0       34.3754       20.9202             0       61.1272             0             0      0.199498    9.6982e-16      0.132618        102318        103196        192648   1.77689e-15
    0.0325325       287.762       288.353      0.282295      0.247148      -8.41339             0       6.61567       6.55878             0       36.3966       22.0741             0       61.4511             0             0      0.197946   9.67896e-16      0.139364        102318        103198        191228   1.77336e-15
     0.033033       287.787       288.346       0.27911     -0.503405      -7.86078             0       6.49945        6.7857             0       38.4361       23.2013             0       61.7571             0             0      0.196423   9.65955e-16      0.145986        102318        103199        189819   1.76981e-15
    0.0335335       287.799       288.338      0.279356      -1.00799       -7.3576             0       6.37721       6.99366             0       40.7345       23.9503             0       61.8098             0             0      0.195306   9.63793e-16      0.150845        102317        103201        188564   1.76585e-15
     0.034034        287.81        288.33      0.279869      -1.49748      -6.85647             0        6.2541        7.1993             0       43.0386       24.6651             0       61.8391             0             0      0.194216   9.61623e-16      0.155582        102316        103203        187323   1.76187e-15
    0.0345345       287.822       288.321      0.284029      -1.78016      -6.38342             0       6.11913       7.37309             0       45.4209       24.9111             0       61.5475             0             0      0.193511   9.59342e-16      0.158649        102314        103205        186283   1.75769e-15
     0.035035       287.835       288.312      0.288308      -2.05259      -5.91128             0       5.98255       7.54346             0       47.7963       25.1169             0       61.2262             0             0      0.192759   9.56894e-16       0.16192        102311        103208        185260   1.75321e-15
    0.0355355       287.874       288.304       0.29417      -2.18876      -5.45126             0       5.82445       7.66861             0       50.0798       24.7906             0       60.5109             0             0      0.191384   9.52224e-16      0.167895        102309        103210        184451   1.74465e-15
     0.036036       287.914       288.297      0.299895      -2.31907      -4.99322             0       5.66371       7.78944             0       52.3508       24.4229             0       59.7613             0             0      0.189976    9.4742e-16      0.174018        102306        103213        183656   1.73585e-15
    0.0365365       287.973       288.292      0.303857      -2.37373      -4.56077             0       5.46908       7.85468             0       54.4595       23.5233             0       58.5679             0             0       0.18813   9.40885e-16      0.182042        102303        103217        183048   1.72388e-15
     0.037037       288.032       288.287      0.307608      -2.42289      -4.13318             0       5.27097       7.91508             0        56.555       22.5858             0       57.3369             0             0      0.186338   9.34505e-16      0.189835        102301        103220        182452   1.71219e-15
    0.0375375        288.07       288.285      0.308708      -2.40334      -3.76649             0       5.02927       7.91498             0       58.4867       21.1746             0       55.6355             0             0      0.185208    9.3006e-16      0.194746        102298        103224        182004   1.70404e-15
     0.038038       288.108       288.282      0.309687       -2.3785      -3.40828             0       4.78337       7.90998             0       60.4105       19.7364             0        53.897             0             0      0.184106   9.25691e-16      0.199539        102296        103227        181567   1.69604e-15
    0.0385385       288.126        288.28      0.309196      -2.28932      -3.15316             0       4.48627       7.84544             0       62.2397       17.9689             0        51.707             0             0      0.183335   9.22251e-16      0.202893        102294        103231        181261   1.68974e-15
     0.039039       288.143       288.279      0.308478      -2.20004      -2.90625             0        4.1846       7.77611             0       64.0659       16.1895             0       49.4856             0             0      0.182552   9.18773e-16      0.206296        102292        103236        180964   1.68336e-15
    0.0395395       288.157       288.278      0.305085      -2.10962      -2.75637             0       3.82872       7.65019             0       65.8589        14.269             0       46.8943             0             0      0.181635   9.14836e-16      0.210283        102291        103240        180767   1.67615e-15
      0.04004        288.17       288.277      0.301319      -2.02402        -2.612             0       3.46913        7.5194             0       67.6308        12.345             0       44.2828             0             0       0.18074   9.11015e-16      0.214173        102290        103245        180574   1.66915e-15
    0.0405405       288.176       288.278      0.293269      -1.99395      -2.53116             0       3.06685       7.33259             0       69.1599        10.381             0       41.4399             0             0      0.180103   9.08523e-16      0.216942        102289        103250        180429   1.66458e-15
     0.041041       288.182        288.28      0.285006      -1.96559       -2.4531             0       2.66305       7.14082             0       70.6232       8.41584             0       38.5848             0             0      0.179495   9.06169e-16      0.219587        102289        103255        180284   1.66027e-15
    0.0415415       288.187       288.285      0.274377      -1.95635      -2.40615             0       2.24211       6.89356             0       71.3502       6.43745             0       35.5941             0             0      0.179205    9.0535e-16      0.220846        102289        103261        180141   1.65877e-15
     0.042042       288.194        288.29      0.263703      -1.93934      -2.35791             0       1.82133       6.64154             0       71.9915       4.46629             0       32.5975             0             0      0.178939   9.04675e-16      0.222006        102290        103266        180000   1.65753e-15
    0.0425425       288.212       288.298      0.252544      -1.83763      -2.29551             0       1.40223        6.3376             0       71.6975       2.57389             0       29.5374             0             0       0.17892   9.05562e-16      0.222088        102290        103271        179880   1.65916e-15
     0.043043       288.231       288.306      0.241271      -1.71947      -2.22974             0      0.983083       6.02988             0        71.356      0.700011             0       26.4823             0             0      0.178942   9.06696e-16      0.221991        102291        103276        179766   1.66124e-15
    0.0435435        288.26        288.32      0.228789      -1.42646       -2.1283             0      0.563419        5.6819             0       70.5091     -0.976943             0       23.4822             0             0      0.179403    9.1045e-16      0.219988        102292        103281        179712   1.66812e-15
     0.044044       288.288       288.333      0.216286      -1.11981      -2.02531             0      0.145428       5.33038             0       69.6124      -2.61448             0       20.5002             0             0      0.179912   9.14548e-16      0.217775        102292        103287        179665   1.67562e-15
    0.0445445       288.299       288.351      0.203581     -0.671693      -1.90613             0     -0.255222       4.94224             0       68.1989      -3.84349             0        17.707             0             0      0.180921   9.22214e-16      0.213388        102293        103291        179700   1.68967e-15
     0.045045       288.309       288.369      0.191284     -0.224432      -1.78825             0     -0.650306       4.54981             0       66.6912      -5.00839             0       14.9399             0             0      0.181937   9.30114e-16      0.208971        102294        103296        179745   1.70414e-15
    0.0455455       288.302       288.383      0.183117      0.214216      -1.68343             0     -0.989104       4.11387             0       64.2303       -5.5251             0       12.4365             0             0      0.183022   9.40373e-16      0.204251        102295        103301        179886   1.72294e-15