#           y             T         TMean   TPrime2Mean           U_x           U_y           U_z       UMean_x       UMean_y       UMean_z UPrime2Mea... UPrime2Mea... UPrime2Mea... UPrime2Mea... UPrime2Mea... UPrime2Mea...            O2           H2O          C3H8             p         pMean   pPrime2Mean           CO2
  1.11022e-19       287.718       288.259      0.168256        22.176   4.16169e-17             0        15.033   8.24884e-18             0       22.4352   6.53885e-19             0   2.36962e-17             0             0      0.229903   1.12442e-17   0.000423042        102293        103310        176061   2.06014e-17
  0.000500501       287.718       288.257      0.175285       22.1711      0.187613             0       15.0438     0.0371867             0       22.4759    0.00294779             0      0.106825             0             0      0.229869    1.2998e-17   0.000568428        102293        103310        176033   2.38147e-17
     0.001001       287.717       288.255      0.182334       22.1663       0.37523             0       15.0547     0.0743727             0       22.5168    0.00587072             0      0.213901             0             0      0.229836   1.47604e-17   0.000714969        102293        103310        176005   2.70438e-17
    0.0015015       287.716       288.254      0.199001       22.1509      0.564421             0       15.0787       0.11126             0       22.6438   -0.00360915             0      0.446152             0             0      0.229669   2.08096e-17      0.001438        102293        103310        175917   3.81271e-17
     0.002002       287.715       288.252      0.215665       22.1353      0.753622             0       15.1026      0.148145             0       22.7706    -0.0131139             0      0.678858             0             0      0.229502   2.68795e-17    0.00216556        102293        103309        175828   4.92483e-17
    0.0025025       287.712       288.256      0.231771       22.0932      0.945464             0       15.1094      0.184462             0       22.8298    -0.0288102             0       1.02469             0             0      0.229075   3.81068e-17    0.00401995        102294        103309        175684   6.98187e-17
     0.003003       287.709       288.259      0.247841        22.051       1.13732             0       15.1159      0.220778             0       22.8873    -0.0444401             0       1.37099             0             0      0.228645   4.93719e-17    0.00588924        102294        103309        175540   9.04586e-17
    0.0035035       287.715       288.272      0.258047       22.0061       1.33104             0       15.0833      0.256799             0       22.6462    -0.0490703             0       1.79704             0             0      0.227648   6.69192e-17     0.0102273        102295        103308        175344   1.22608e-16
     0.004004       287.721       288.285      0.268229       21.9613       1.52499             0       15.0505      0.292835             0       22.4033    -0.0533521             0       2.22354             0             0      0.226642   8.45265e-17     0.0146018        102295        103308        175147   1.54868e-16
    0.0045045       287.747       288.304      0.275271       21.9191       1.74655             0       14.9869      0.330598             0       21.9464     -0.014428             0       2.70536             0             0      0.224596   1.09586e-16     0.0234954        102296        103307        174898   2.00783e-16
   0.00500501       287.774       288.322      0.282298       21.8763       1.96846             0       14.9232      0.368359             0       21.4898     0.0246757             0       3.18763             0             0      0.222544   1.34656e-16     0.0324182        102297        103307        174649   2.46716e-16
   0.00550551       287.789       288.339      0.287916       21.7786       2.22444             0       14.8437      0.405857             0       21.0774     0.0815447             0       3.71461             0             0      0.219827   1.60724e-16      0.044229        102297        103306        174360   2.94476e-16
   0.00600601       287.804       288.356      0.293506       21.6813       2.48082             0       14.7642      0.443303             0       20.6657      0.137271             0       4.24222             0             0      0.217111   1.86733e-16     0.0560393        102297        103306        174070    3.4213e-16
   0.00650651       287.793        288.37      0.296746       21.6074       2.76931             0       14.6779      0.476381             0       20.3095     0.0989188             0       4.82168             0             0      0.214406   2.07945e-16     0.0677992        102297        103305        173739   3.80994e-16
   0.00700701       287.781       288.385      0.299945       21.5346       3.05839             0       14.5918        0.5094             0       19.9538     0.0589053             0       5.40237             0             0      0.211702   2.29136e-16     0.0795562        102297        103304        173407   4.19819e-16
   0.00750751       287.763       288.395      0.300228       21.5449       3.38968             0       14.5123      0.538187             0       19.6314    -0.0981113             0       6.06928             0             0      0.209047    2.4879e-16     0.0911006        102298        103304        173038    4.5583e-16
   0.00800801       287.745       288.405      0.300459       21.5544       3.72125             0       14.4332      0.567019             0       19.3107     -0.254801             0       6.73846             0             0      0.206395    2.6841e-16      0.102629        102298        103303        172670   4.91777e-16
   0.00850851       287.726       288.408       0.29745       21.5106       4.07061             0       14.3718      0.598645             0       19.0896       -0.3914             0       7.54702             0             0      0.203967   2.85894e-16      0.113187        102298        103302        172293   5.23811e-16
   0.00900901       287.707        288.41      0.294372       21.4649       4.41874             0       14.3104      0.630442             0       18.8682      -0.52425             0       8.35765             0             0      0.201546   3.03266e-16      0.123715        102298        103301        171916    5.5564e-16
   0.00950951       287.691       288.411      0.287583       21.3095       4.70046             0        14.247      0.671619             0       18.6332     -0.452524             0       9.28099             0             0      0.199483   3.14501e-16      0.132683        102298        103301        171558   5.76223e-16
      0.01001       287.675       288.412       0.28076        21.154       4.97946             0       14.1827      0.713033             0       18.3943      -0.37502             0       10.2048             0             0      0.197422   3.25704e-16      0.141643        102298        103300        171200   5.96751e-16
    0.0105105       287.676       288.416      0.272261       20.9972        5.1251             0       14.0789      0.766099             0       17.9635    -0.0144438             0       11.1491             0             0      0.195446   3.35419e-16      0.150234        102298        103299        170876    6.1455e-16
     0.011011       287.678        288.42       0.26379        20.841       5.26844             0       13.9736       0.81928             0       17.5279      0.350209             0       12.0932             0             0      0.193469   3.45315e-16       0.15883        102298        103298        170553   6.32681e-16
    0.0115115       287.701       288.428       0.25651       20.7177       5.30935             0       13.8032      0.877552             0       16.8778      0.896086             0       13.0228             0             0       0.19144   3.63299e-16      0.167652        102297        103296        170274   6.65631e-16
     0.012012       287.724       288.437      0.249246       20.5915       5.35066             0       13.6308      0.935772             0       16.2235       1.44336             0        13.951             0             0      0.189416   3.81486e-16      0.176453        102297        103295        169995   6.98954e-16
    0.0125125       287.755       288.448      0.242613       20.3436       5.40793             0       13.3776       0.99186             0       15.4017       2.04734             0         14.82             0             0       0.18759   4.07968e-16       0.18439        102297        103294        169748   7.47473e-16
     0.013013       287.786       288.459      0.236011       20.0884       5.46812             0       13.1222       1.04775             0        14.577       2.65026             0       15.6847             0             0      0.185778   4.34377e-16      0.192269        102297        103292        169500    7.9586e-16
    0.0135135       287.812        288.47      0.230563       19.5565       5.63741             0       12.7849         1.096             0       13.6483       3.21351             0       16.3922             0             0      0.184457   4.58062e-16      0.198014        102297        103291        169258   8.39255e-16
     0.014014       287.836       288.482      0.225182        19.018       5.80933             0        12.446       1.14374             0       12.7204       3.77091             0       17.0944             0             0      0.183151   4.81483e-16      0.203693        102297        103290        169017   8.82166e-16
    0.0145145        287.85       288.491      0.222112       18.2494       6.07257             0       12.0532       1.17369             0        11.818       4.12585             0       17.6166             0             0      0.182363   4.95708e-16      0.207118        102296        103289        168774    9.0823e-16
     0.015015       287.864         288.5       0.21909       17.4796       6.33566             0       11.6601       1.20286             0       10.9222        4.4719             0       18.1344             0             0      0.181586   5.09781e-16      0.210496        102295        103288        168530   9.34014e-16
    0.0155155       287.872       288.505      0.217617       16.6708       6.59333             0       11.2536       1.20691             0       10.2426        4.5305             0       18.5123             0             0       0.18115   5.18901e-16      0.212392        102294        103287        168274   9.50724e-16
     0.016016       287.879       288.511       0.21614       15.8655       6.84899             0       10.8478       1.21028             0       9.57598       4.58292             0       18.8869             0             0      0.180721   5.27951e-16      0.214258        102293        103286        168017   9.67306e-16
    0.0165165       287.884       288.513      0.214556       15.1624       7.04402             0       10.4645       1.19266             0       9.30506       4.44814             0       19.1591             0             0      0.180494   5.34871e-16      0.215243        102292        103286        167738   9.79984e-16
     0.017017       287.889       288.515      0.212896       14.4635       7.23785             0       10.0828       1.17475             0       9.04974       4.31225             0       19.4292             0             0      0.180271   5.41831e-16      0.216215        102290        103285        167458   9.92736e-16
    0.0175175       287.895       288.513      0.209078       13.8837       7.39738             0       9.74825       1.14825             0       9.23778       4.14486             0       19.6382             0             0      0.180125   5.49953e-16      0.216846        102289        103285        167152   1.00762e-15
     0.018018         287.9       288.511      0.205231        13.307       7.55732             0       9.41563       1.12178             0       9.43889       3.97931             0       19.8475             0             0       0.17998    5.5826e-16      0.217478        102287        103284        166845   1.02284e-15
    0.0185185        287.91       288.503      0.200591       12.8138       7.72818             0       9.13445       1.09586             0       9.98978        3.8635             0        20.063             0             0      0.179833   5.71537e-16      0.218117        102285        103284        166532   1.04716e-15
     0.019019        287.92       288.496      0.196055        12.323       7.90001             0       8.85494          1.07             0       10.5486       3.74957             0       20.2821             0             0      0.179688   5.84798e-16      0.218748        102283        103284        166220   1.07146e-15
    0.0195195       287.931       288.491       0.19415       11.8921       8.09654             0       8.61769        1.0454             0       11.3074       3.68311             0       20.5906             0             0      0.179595   5.97645e-16      0.219152        102282        103284        165922     1.095e-15
      0.02002       287.942       288.485      0.192267       11.4635       8.29357             0        8.3819       1.02073             0        12.071       3.61675             0       20.9044             0             0      0.179505   6.10262e-16      0.219543        102280        103283        165625   1.11811e-15
    0.0205205       287.951       288.488       0.19093        11.087       8.50273             0       8.18128      0.994283             0       12.9478       3.55265             0       21.3448             0             0      0.179481   6.17385e-16      0.219647        102278        103283        165343   1.13116e-15
     0.021021        287.96       288.491      0.189526       10.7126        8.7116             0       7.98193      0.967725             0       13.8274       3.48652             0       21.7899             0             0      0.179459   6.24397e-16      0.219744        102277        103283        165063   1.14401e-15
    0.0215215       287.969       288.502      0.186601       10.3845       8.91387             0       7.81177      0.938642             0       14.7711       3.37399             0       22.3402             0             0      0.179469   6.28876e-16      0.219699        102275        103283        164801   1.15222e-15
     0.022022       287.978       288.513      0.183727       10.0582       9.11524             0       7.64243      0.909418             0       15.7141        3.2585             0       22.8931             0             0      0.179482   6.33413e-16      0.219643        102274        103282        164541   1.16053e-15
    0.0225225        287.99       288.527      0.181946       9.77093       9.29735             0        7.4906      0.877151             0       16.6409       3.07872             0       23.5031             0             0      0.179551   6.39203e-16      0.219345        102272        103282        164303   1.17114e-15
     0.023023       288.002       288.541      0.180245       9.48518       9.47818             0       7.33923      0.844576             0       17.5617       2.89607             0       24.1139             0             0      0.179627   6.45126e-16      0.219015        102271        103282        164066   1.18199e-15
    0.0235235       288.012       288.553      0.180215       9.23142       9.63244             0       7.19754      0.805618             0       18.3571       2.65408             0       24.7414             0             0      0.179859   6.53814e-16      0.218006        102270        103281        163864   1.19791e-15
     0.024024       288.022       288.565      0.180282        8.9793       9.78471             0       7.05661      0.766151             0         19.14       2.41013             0       25.3691             0             0        0.1801   6.62583e-16      0.216954        102269        103281        163665   1.21398e-15
    0.0245245       288.027       288.576      0.182285       8.75975       9.89748             0       6.93092      0.716596             0       19.6753       2.12743             0       26.0011             0             0      0.180535    6.7294e-16      0.215067        102268        103281        163518   1.23295e-15
     0.025025       288.031       288.587      0.184305       8.54233       10.0071             0       6.80649      0.666552             0       20.1949       1.84349             0       26.6338             0             0      0.180973   6.83239e-16      0.213161        102268        103280        163374   1.25182e-15
    0.0255255       288.032       288.598      0.186648       8.36543       10.0579             0       6.70609      0.607209             0       20.4151       1.53604             0       27.2789             0             0      0.181491   6.92435e-16      0.210909        102268        103280        163289   1.26867e-15
     0.026026       288.033       288.609      0.188826       8.19025        10.105             0       6.60708      0.547582             0       20.6223       1.22689             0       27.9251             0             0      0.182012   7.01567e-16      0.208644        102267        103280        163207    1.2854e-15
    0.0265265        288.03       288.619      0.188012       8.04647       10.0869             0       6.53341       0.48279             0       20.5914      0.886745             0       28.5921             0             0      0.182592   7.09527e-16      0.206121        102268        103280        163188   1.29999e-15
     0.027027       288.027       288.629      0.187015       7.90272       10.0661             0       6.46094      0.417918             0       20.5528      0.543361             0       29.2607             0             0      0.183178   7.17487e-16      0.203573        102268        103279        163172   1.31457e-15
    0.0275275       288.021       288.637      0.182811       7.75949       9.99692             0       6.40972      0.351627             0       20.3811      0.143177             0       29.9591             0             0      0.183863   7.25464e-16      0.200596        102269        103279        163220   1.32919e-15
     0.028028       288.015       288.645      0.178523       7.61505       9.92582             0       6.35955       0.28537             0       20.2045     -0.260837             0       30.6583             0             0      0.184549   7.33413e-16      0.197614        102270        103278        163272   1.34375e-15
    0.0285285       288.012       288.649      0.172818        7.4502       9.82166             0       6.32714      0.219684             0       19.9459     -0.729398             0       31.3707             0             0      0.185253   7.40899e-16      0.194551        102271        103278        163394   1.35747e-15
     0.029029        288.01       288.652      0.167181       7.28462       9.71515             0       6.29575      0.154045             0         19.68      -1.19988             0       32.0802             0             0       0.18596   7.48326e-16       0.19148        102272        103278        163520   1.37107e-15
    0.0295295       288.017       288.652      0.162646        7.1074       9.57063             0       6.28069     0.0891693             0       19.2952      -1.70164             0       32.7421             0             0        0.1867    7.5478e-16      0.188261        102274        103277        163723    1.3829e-15
      0.03003       288.023       288.652      0.158225       6.93159       9.42184             0       6.26624     0.0245335             0       18.9002      -2.20268             0       33.3953             0             0      0.187453   7.61236e-16      0.184988        102275        103277        163930   1.39473e-15
    0.0305305       288.034       288.651      0.155599       6.77785       9.20627             0       6.26136    -0.0363448             0       18.3434      -2.69261             0       33.9141             0             0      0.188397   7.67722e-16      0.180882        102277        103277        164210   1.40661e-15
     0.031031       288.044        288.65       0.15302       6.62917        8.9834             0       6.25639    -0.0965373             0       17.7753      -3.17969             0        34.419             0             0      0.189357   7.74384e-16       0.17671        102279        103277        164495   1.41882e-15
    0.0315315       288.051       288.647      0.151137       6.55704       8.65014             0       6.24997     -0.146353             0       17.0363      -3.62364             0       34.7155             0             0      0.190542     7.837e-16      0.171557        102281        103277        164845   1.43588e-15
     0.032032       288.059       288.645      0.149238       6.49247       8.30756             0       6.24341     -0.195146             0       16.2915      -4.06504             0       34.9963             0             0      0.191734   7.93478e-16      0.166373        102283        103278        165200    1.4538e-15
    0.0325325        288.07       288.641      0.147093       6.53843       7.82868             0        6.2348     -0.228976             0       15.4618      -4.46918             0       35.0474             0             0       0.19303   8.10008e-16      0.160738        102285        103278        165618   1.48409e-15
     0.033033       288.082       288.638      0.144909       6.58416       7.34814             0       6.22684     -0.261796             0         14.64      -4.87434             0       35.0844             0             0      0.194309   8.26826e-16       0.15518        102286        103278        166039    1.5149e-15
    0.0335335       288.107       288.636       0.14216       6.62688       6.84403             0       6.22828     -0.280327             0         13.93      -5.29396             0       34.9238             0             0      0.195336    8.4772e-16      0.150714        102288        103279        166507   1.55318e-15
     0.034034       288.133       288.633      0.139433       6.65434       6.35306             0       6.23129     -0.298109             0        13.241      -5.71797             0        34.751             0             0      0.196313   8.68168e-16      0.146465        102290        103279        166978   1.59065e-15
    0.0345345        288.17        288.63      0.137015        6.4726       6.04218             0       6.25576     -0.305628             0       12.8412      -6.20217             0       34.4098             0             0      0.196607   8.82492e-16      0.145186        102292        103280        167482   1.61689e-15
     0.035035       288.207       288.627      0.134669       6.27279       5.74607             0       6.28229     -0.312656             0       12.4703      -6.69067             0       34.0555             0             0      0.196855    8.9615e-16      0.144107        102293        103281        167988   1.64191e-15
    0.0355355       288.244       288.624      0.133283       5.83297       5.64617             0       6.33636     -0.313159             0        12.483      -7.23625             0       33.5274             0             0      0.196491   9.00953e-16       0.14569        102294        103282        168508   1.65071e-15
     0.036036        288.28        288.62      0.131984       5.38785        5.5503             0       6.39226     -0.313147             0       12.5313      -7.78347             0       32.9834             0             0      0.196121   9.05359e-16        0.1473        102295        103283        169026   1.65879e-15
    0.0365365       288.292       288.617      0.131795       4.87437       5.50637             0       6.47189      -0.30649             0       13.0374      -8.35195             0       32.2357             0             0      0.195672   9.04662e-16       0.14925        102296        103284        169526   1.65751e-15
     0.037037       288.299       288.614      0.131735       4.36818       5.45603             0       6.55265     -0.299229             0       13.5863      -8.92064             0       31.4715             0             0      0.195255   9.03801e-16      0.151064        102297        103285        170023   1.65593e-15
    0.0375375       288.259        288.61      0.133283       3.95313       5.32541             0        6.6475     -0.284419             0       14.6713      -9.49215             0       30.5023             0             0      0.195231    9.0088e-16      0.151168        102297        103286        170486   1.65058e-15
     0.038038       288.217       288.605      0.135044       3.53912       5.19027             0       6.74294     -0.269231             0       15.7992       -10.064             0       29.5215             0             0      0.195243   8.98264e-16      0.151118        102298        103287        170945   1.64579e-15
    0.0385385       288.138       288.599      0.139399       3.13767       5.00011             0       6.84554     -0.249444             0       17.4487      -10.6395             0       28.3984             0             0      0.195688   8.99349e-16      0.149183        102298        103289        171361   1.64777e-15
     0.039039       288.058       288.592      0.143899       2.72076       4.81835             0       6.94842     -0.229614             0       19.1282      -11.2113             0       27.2678             0             0      0.196135   9.01684e-16      0.147237        102298        103290        171773   1.65205e-15
    0.0395395       287.975       288.582      0.150101       2.12097       4.73595             0       7.05453     -0.209267             0       21.1625      -11.7385             0       26.0478             0             0      0.196611   9.18797e-16      0.145171        102298        103292        172142   1.68341e-15
      0.04004       287.894       288.573      0.156251       1.51819       4.65608             0       7.16033     -0.189137             0       23.2031      -12.2537             0       24.8197             0             0      0.197036   9.37352e-16       0.14332        102299        103293        172509    1.7174e-15
    0.0405405       287.849       288.562      0.161795      0.881019       4.60531             0       7.26253      -0.17149             0       25.3157      -12.6307             0       23.4998             0             0      0.196895   9.72498e-16      0.143934        102299        103295        172858    1.7818e-15
     0.041041       287.809       288.551      0.167205      0.272013       4.53853             0       7.36316     -0.154182             0       27.4082      -12.9897             0       22.1709             0             0      0.196615    1.0119e-15      0.145154        102299        103297        173207   1.85398e-15
    0.0415415       287.825       288.541       0.17112    -0.0216403       4.29241             0       7.44617      -0.14066             0       29.2764      -13.1457             0        20.742             0             0      0.194772   1.09891e-15      0.153167        102299        103299        173551    2.0134e-15
     0.042042       287.845       288.532      0.174821      -0.28723       4.03145             0       7.52645     -0.127351             0       31.1059      -13.2801             0       19.3059             0             0      0.192793    1.1907e-15      0.161769        102299        103300        173895   2.18158e-15
    0.0425425       287.894       288.524      0.176197     -0.246798       3.60858             0       7.57701     -0.116373             0       32.5143      -13.1785             0       17.7919             0             0      0.189337   1.33467e-15      0.176797        102299        103302        174246   2.44536e-15
     0.043043        287.94       288.517      0.177439     -0.207144        3.1858             0       7.62405     -0.105627             0       33.8691      -13.0505             0       16.2728             0             0      0.185954    1.4747e-15      0.191505        102299        103303        174599   2.70192e-15
    0.0435435       287.967       288.513      0.177263     -0.175762        2.7641             0       7.63364    -0.0973495             0       34.6552      -12.6412             0          14.7             0             0      0.183352    1.5729e-15      0.202817        102299        103305        174975   2.88185e-15
     0.044044        287.99       288.508      0.177187     -0.161496       2.35018             0       7.63836      -0.08987             0       35.3879         -12.2             0        13.127             0             0      0.180923   1.66326e-15      0.213379        102299        103307        175350    3.0474e-15
    0.0445445       287.981       288.505      0.178159     -0.324609       2.01681             0       7.59249    -0.0906598             0       35.5665      -11.4286             0       11.5524             0             0      0.180284   1.67231e-15      0.216158        102299        103309        175732   3.06398e-15
     0.045045       287.971       288.502      0.179019     -0.498793       1.68932             0        7.5404    -0.0918991             0       35.7177      -10.6249             0       9.98472             0             0      0.179731   1.67766e-15      0.218559        102298        103311        176114   3.07379e-15
    0.0455455       287.949       288.496      0.178746     -0.784917       1.42124             0       7.42553    -0.0976845             0       35.5911      -9.49534             0       8.48714             0             0      0.180057   1.64569e-15      0.217145        102298        103312        176489    3.0152e-15