#           y             T         TMean   TPrime2Mean           U_x           U_y           U_z       UMean_x       UMean_y       UMean_z UPrime2Mea... UPrime2Mea... UPrime2Mea... UPrime2Mea... UPrime2Mea... UPrime2Mea...            O2           H2O          C3H8             p         pMean   pPrime2Mean           CO2
            0       288.359       288.392      0.210059       17.7532             0             0        13.241             0             0       25.9747             0             0             0             0             0      0.209026   4.53707e-16     0.0911928        102437        103299        195082   8.31275e-16
  0.000500501       288.344       288.398       0.21089       17.7268      0.219319             0       13.2445    0.00526012             0       25.9632    -0.0492914             0     0.0597696             0             0      0.209088   4.53272e-16     0.0909223        102437        103299        195062   8.30479e-16
     0.001001        288.33       288.404      0.211724       17.7003       0.43862             0       13.2479     0.0105222             0       25.9518    -0.0985691             0      0.119704             0             0       0.20915   4.52833e-16     0.0906506        102437        103299        195041   8.29674e-16
    0.0015015       288.302       288.416      0.214405        17.634      0.648874             0       13.2572     0.0167414             0       26.0147     -0.141007             0      0.261834             0             0      0.209364   4.50008e-16     0.0897232        102438        103298        194975   8.24499e-16
     0.002002       288.275       288.428      0.217099       17.5676      0.859068             0       13.2665     0.0229538             0       26.0784     -0.183549             0      0.404403             0             0      0.209579    4.4715e-16     0.0887873        102438        103298        194908   8.19262e-16
    0.0025025       288.233       288.438      0.222909       17.4691       1.05423             0        13.289     0.0274922             0       26.3511     -0.251741             0      0.656263             0             0      0.210276   4.36019e-16      0.085758        102439        103298        194796   7.98868e-16
     0.003003       288.192       288.448      0.228711       17.3705       1.24925             0       13.3117     0.0319989             0       26.6253     -0.320408             0      0.908968             0             0      0.210976   4.24839e-16     0.0827147        102439        103298        194684   7.78385e-16
    0.0035035       288.124       288.454      0.232972       17.2436       1.41958             0        13.359     0.0312519             0       27.1446     -0.467644             0       1.30172             0             0      0.212208   4.05627e-16     0.0773547        102439        103297        194530   7.43184e-16
     0.004004       288.057       288.461      0.237137       17.1166       1.58965             0       13.4064     0.0304621             0        27.665     -0.615644             0       1.69567             0             0      0.213441   3.86429e-16     0.0719952        102439        103297        194376   7.08011e-16
    0.0045045       287.982       288.468       0.22925       16.9677       1.72811             0       13.4683     0.0243713             0       28.3204     -0.858498             0       2.23982             0             0      0.214658   3.69055e-16     0.0667054        102438        103296        194194   6.76178e-16
   0.00500501       287.908       288.475      0.221279       16.8186       1.86618             0       13.5301     0.0182708             0        28.974      -1.10164             0       2.78507             0             0      0.215871   3.51749e-16     0.0614288        102438        103295        194011    6.4447e-16
   0.00550551       287.839       288.484      0.204983       16.6515       1.96504             0       13.5737     0.0112148             0       29.4388      -1.37308             0       3.43923             0             0      0.216787   3.41168e-16     0.0574457        102437        103295        193817   6.25083e-16
   0.00600601        287.77       288.493      0.188728       16.4844       2.06344             0       13.6165    0.00420959             0       29.8959      -1.64341             0       4.09373             0             0        0.2177   3.30664e-16     0.0534805        102437        103294        193624   6.05838e-16
   0.00650651         287.7       288.502      0.175784       16.3201       2.12366             0       13.6042    0.00138287             0       29.7191      -1.82244             0       4.77539             0             0      0.218274   3.26601e-16     0.0509846        102436        103293        193426   5.98395e-16
   0.00700701        287.63       288.511      0.162915       16.1558       2.18359             0       13.5908   -0.00135706             0       29.5307      -1.99937             0       5.45654             0             0      0.218842   3.22622e-16     0.0485135        102435        103292        193229   5.91103e-16
   0.00750751       287.546        288.52      0.155314       15.9934       2.22299             0       13.5065    0.00201494             0       28.5196      -2.02805             0       6.10135             0             0      0.219008   3.24507e-16     0.0477904        102435        103291        193032   5.94557e-16
   0.00800801       287.463        288.53       0.14776        15.831        2.2627             0       13.4214    0.00543618             0       27.5001      -2.05545             0       6.74555             0             0       0.21917   3.26433e-16     0.0470866        102434        103290        192835   5.98086e-16
   0.00850851        287.37       288.541      0.143136       15.6624        2.3208             0       13.2841      0.011886             0       25.9644      -2.00499             0       7.35225             0             0      0.219061   3.30881e-16     0.0475609        102434        103289        192644   6.06236e-16
   0.00900901       287.277       288.551      0.138531       15.4944       2.37941             0       13.1462     0.0183152             0       24.4269      -1.95491             0        7.9587             0             0      0.218951   3.35321e-16     0.0480411        102433        103288        192453   6.14371e-16
   0.00950951         287.2       288.564       0.13505       15.3548        2.4661             0       12.9842     0.0236223             0       22.7957      -1.92614             0       8.55166             0             0      0.218767   3.39312e-16     0.0488413        102433        103287        192265   6.21683e-16
      0.01001       287.125       288.578      0.131581       15.2173       2.55282             0       12.8218     0.0289022             0       21.1653        -1.898             0       9.14411             0             0       0.21858    3.4333e-16     0.0496538        102432        103286        192078   6.29045e-16
    0.0105105       287.086       288.592      0.128771       15.1837       2.64078             0       12.6425     0.0328497             0       19.5727      -1.90059             0       9.71099             0             0      0.218254   3.48704e-16     0.0510691        102432        103285        191887    6.3889e-16
     0.011011       287.047       288.607      0.126002       15.1523       2.72886             0       12.4626     0.0368413             0       17.9793      -1.90251             0       10.2764             0             0      0.217922   3.54173e-16     0.0525137        102431        103284        191695   6.48912e-16
    0.0115115       287.033       288.622       0.12507        15.214       2.82226             0       12.2571     0.0427945             0       16.3527      -1.87425             0       10.7746             0             0       0.21729   3.63931e-16      0.055261        102431        103283        191485    6.6679e-16
     0.012012       287.018       288.636       0.12416       15.2747       2.91601             0        12.051     0.0488004             0       14.7259      -1.84495             0       11.2708             0             0      0.216649   3.73782e-16     0.0580483        102431        103282        191273   6.84839e-16
    0.0125125       287.016       288.649      0.124144       15.2945       3.02417             0       11.8206      0.056951             0       13.0938       -1.7729             0       11.6858             0             0      0.215633   3.87424e-16     0.0624642        102431        103282        191037   7.09834e-16
     0.013013       287.014       288.661      0.124094       15.3132       3.13293             0         11.59      0.065055             0        11.467       -1.7013             0       12.0991             0             0      0.214607   4.01164e-16     0.0669248        102430        103281        190800   7.35008e-16
    0.0135135       287.033       288.671      0.122787       15.2862       3.26456             0       11.3538     0.0714092             0        10.038      -1.64629             0       12.4476             0             0      0.213196    4.1857e-16     0.0730596        102430        103280        190535   7.66899e-16
     0.014014       287.051       288.681      0.121466       15.2607       3.39819             0       11.1177     0.0777209             0        8.6198      -1.59198             0       12.7931             0             0      0.211777   4.36151e-16     0.0792307        102430        103280        190269    7.9911e-16
    0.0145145       287.089       288.688      0.119649       15.2843       3.60136             0       10.8873      0.082556             0       7.57667      -1.56167             0       13.0358             0             0      0.210068   4.59803e-16     0.0866622        102430        103279        189976   8.42446e-16
     0.015015       287.127       288.694      0.117856       15.3081         3.807             0       10.6569     0.0875577             0       6.54736      -1.53027             0       13.2721             0             0      0.208359   4.83575e-16     0.0940936        102429        103279        189682      8.86e-16
    0.0155155       287.173         288.7      0.116814       15.3358       4.09239             0       10.4246     0.0979467             0       5.96465      -1.46381             0       13.3029             0             0      0.206649   5.11203e-16      0.101525        102429        103278        189364   9.36619e-16
     0.016016       287.218       288.705      0.115783       15.3603       4.37769             0       10.1921      0.108623             0       5.39976      -1.39713             0        13.326             0             0      0.204945   5.38863e-16      0.108937        102428        103278        189045   9.87297e-16
    0.0165165       287.262       288.708      0.115098        15.291       4.66026             0       9.95388      0.128001             0       5.37358      -1.32402             0        13.117             0             0       0.20337   5.67483e-16      0.115784        102428        103278        188701   1.03973e-15
     0.017017       287.306       288.712      0.114417       15.2182       4.93926             0       9.71584      0.147512             0       5.36917      -1.25508             0       12.9033             0             0      0.201802   5.96028e-16      0.122602        102427        103278        188355   1.09203e-15
    0.0175175       287.346       288.714      0.113874       15.0485       5.11673             0       9.48379      0.170812             0       5.98307      -1.30466             0       12.5571             0             0      0.200425   6.22465e-16      0.128587        102426        103278        187991   1.14047e-15
     0.018018       287.386       288.716      0.113373       14.8748       5.28976             0        9.2523      0.194081             0       6.61716      -1.36054             0       12.2096             0             0      0.199061   6.48683e-16      0.134516        102425        103278        187626   1.18851e-15
    0.0185185       287.423       288.718      0.113978       14.5914       5.34371             0       9.03569      0.216499             0       7.79181      -1.58529             0        11.825             0             0      0.198046   6.69047e-16       0.13893        102425        103279        187265   1.22582e-15
     0.019019       287.461       288.719      0.114665       14.3007       5.39541             0        8.8196       0.23889             0       8.97843       -1.8138             0         11.44             0             0      0.197041   6.89235e-16      0.143302        102425        103279        186906   1.26281e-15
    0.0195195       287.504       288.721      0.117431        13.826        5.3902             0       8.61654      0.260592             0       10.4678      -2.13772             0       11.0447             0             0       0.19628    7.0497e-16      0.146609        102425        103279        186578   1.29164e-15
      0.02002       287.547       288.722      0.120319       13.3446       5.38485             0       8.41369       0.28233             0        11.959      -2.46001             0       10.6492             0             0      0.195525   7.20514e-16      0.149893        102425        103280        186252   1.32012e-15
    0.0205205         287.6       288.724      0.126102       12.7009       5.37622             0       8.21594      0.304932             0       13.4943      -2.74295             0       10.2477             0             0      0.194902   7.31508e-16      0.152602        102425        103280        185970   1.34026e-15
     0.021021       287.654       288.726      0.132033       12.0571       5.36795             0       8.01855      0.327717             0       15.0189       -3.0201             0       9.84521             0             0      0.194282   7.42363e-16      0.155295        102425        103280        185691   1.36015e-15
    0.0215215       287.713       288.728      0.141325       11.4127       5.36805             0       7.82927      0.354697             0       16.3014      -3.16517             0       9.42023             0             0      0.193749   7.50045e-16      0.157613        102425        103280        185473   1.37422e-15
     0.022022       287.771       288.731      0.150755        10.775       5.36861             0       7.64108      0.381524             0       17.5607      -3.29986             0       8.99534             0             0      0.193219   7.57914e-16      0.159917        102425        103281        185258   1.38864e-15
    0.0225225       287.827       288.736      0.163156       10.2841       5.37944             0        7.4765      0.405037             0       18.3137      -3.20897             0       8.57264             0             0      0.192758   7.69879e-16      0.161923        102426        103281        185116   1.41056e-15
     0.023023       287.884       288.741      0.175537       9.80211       5.39111             0       7.31287      0.428651             0       19.0503       -3.1118             0       8.15253             0             0        0.1923   7.82413e-16      0.163914        102426        103281        184976   1.43353e-15
    0.0235235       287.935       288.744        0.1875       9.50452       5.42017             0       7.16877      0.454335             0       19.4449      -2.88463             0       7.78607             0             0      0.191914   8.06761e-16       0.16559        102427        103281        184913   1.47814e-15
     0.024024       287.986       288.748      0.199304       9.21459       5.45042             0       7.02526      0.480217             0       19.8324      -2.65375             0        7.4224             0             0      0.191535   8.31538e-16      0.167238        102427        103281        184854   1.52353e-15
    0.0245245       288.021       288.751      0.207956       9.07646       5.50416             0       6.89377      0.510013             0       20.0787      -2.34952             0       7.11392             0             0      0.191282   8.64817e-16       0.16834        102428        103281        184872   1.58451e-15
     0.025025       288.054       288.754      0.216479       8.94314       5.55928             0       6.76262      0.539805             0       20.3256      -2.04168             0       6.80781             0             0       0.19104    8.9758e-16       0.16939        102428        103281        184895   1.64453e-15
    0.0255255       288.066       288.761      0.222562       8.90115       5.64049             0        6.6379      0.569497             0       20.5854      -1.66539             0       6.54701             0             0      0.191021   9.20559e-16      0.169476        102428        103281        184994   1.68664e-15
     0.026026       288.077       288.768      0.228471        8.8607       5.72256             0       6.51308      0.599689             0       20.8651      -1.29713             0       6.29145             0             0      0.191019   9.42846e-16      0.169481        102428        103280        185097   1.72747e-15
    0.0265265       288.073       288.776       0.23119       8.84838       5.82027             0       6.38649      0.638977             0       21.5092      -1.07538             0       6.13128             0             0      0.191362   9.52509e-16      0.167993        102428        103280        185283   1.74517e-15
     0.027027       288.068       288.783      0.233619       8.83618        5.9179             0        6.2607      0.678444             0       22.1679     -0.865108             0       5.97945             0             0      0.191717   9.61896e-16       0.16645        102428        103280        185474   1.76237e-15
    0.0275275       288.055       288.786      0.230981       8.82608        6.0144             0       6.14916      0.721046             0       23.0828     -0.855716             0       5.97376             0             0      0.192295   9.66448e-16      0.163936        102428        103280        185754   1.77071e-15
     0.028028       288.041       288.788      0.228046       8.81764        6.1107             0       6.04021       0.76312             0       23.9763     -0.850335             0       5.97508             0             0      0.192873    9.7075e-16      0.161424        102428        103279        186040    1.7786e-15
    0.0285285       288.026       288.784      0.220085       8.83698       6.20374             0       5.97507      0.796279             0       24.5097     -0.912585             0       6.09448             0             0      0.193441   9.70834e-16      0.158954        102427        103279        186423   1.77875e-15
     0.029029        288.01       288.781      0.212012       8.85996       6.29727             0       5.91365      0.828373             0       24.9894     -0.970392             0       6.21786             0             0      0.194021   9.70691e-16       0.15643        102427        103278        186812   1.77849e-15
    0.0295295       287.986       288.773      0.202099       8.94195       6.39875             0       5.91284      0.843178             0       24.5966     -0.956041             0       6.40569             0             0      0.194807   9.66874e-16      0.153013        102426        103277        187297   1.77149e-15
      0.03003       287.962       288.765      0.192218       9.02631       6.50115             0       5.91559      0.856853             0        24.148     -0.934754             0       6.59453             0             0       0.19561   9.62933e-16      0.149522        102426        103276        187788   1.76427e-15
    0.0305305       287.928       288.758      0.182849       9.14795       6.61805             0       5.97423      0.852832             0       22.8262     -0.804812             0       6.79907             0             0      0.196681   9.57055e-16      0.144863        102426        103276        188351    1.7535e-15
     0.031031       287.895       288.751      0.173472       9.26725       6.73561             0        6.0354      0.847978             0        21.475     -0.671356             0       7.00334             0             0      0.197741   9.51421e-16      0.140257        102426        103275        188916   1.74318e-15
    0.0315315       287.869       288.747      0.163978         9.351       6.86293             0       6.13491      0.830518             0        19.679     -0.484741             0       7.20349             0             0      0.198619    9.4949e-16       0.13644        102426        103274        189521   1.73964e-15
     0.032032       287.843       288.742      0.154479       9.42729       6.98999             0       6.23583      0.812653             0        17.885     -0.299875             0       7.40341             0             0      0.199469   9.48042e-16      0.132745        102426        103273        190126   1.73699e-15
    0.0325325       287.833       288.739      0.144916       9.39432        7.1131             0       6.35737      0.788876             0       16.1191     -0.140588             0        7.5999             0             0      0.199909   9.53656e-16      0.130831        102426        103273        190737   1.74728e-15
     0.033033       287.823       288.736      0.135426       9.35208       7.23475             0       6.47957      0.765045             0       14.3729     0.0140628             0       7.79644             0             0       0.20033   9.59601e-16      0.128998        102426        103272        191347   1.75817e-15
    0.0335335       287.822       288.734       0.12697       9.17853        7.3358             0       6.61104      0.740446             0       12.9053      0.103117             0       7.99377             0             0      0.200488   9.70229e-16      0.128313        102426        103272        191933   1.77764e-15
     0.034034       287.821       288.733      0.118624       8.99772       7.43516             0       6.74287      0.715839             0       11.4597      0.187378             0       8.19067             0             0      0.200635   9.80922e-16      0.127673        102426        103271        192517   1.79723e-15
    0.0345345       287.822       288.732      0.111774       8.71731       7.51139             0       6.87975      0.691136             0       10.3143       0.20595             0       8.38169             0             0      0.200641   9.92499e-16      0.127648        102426        103271        193074   1.81844e-15
     0.035035       287.822       288.731      0.105018       8.43424        7.5852             0       7.01752      0.666508             0       9.18248      0.219606             0       8.57065             0             0      0.200643   1.00395e-15      0.127638        102426        103271        193628   1.83943e-15
    0.0355355        287.82        288.73     0.0995048       8.11583       7.62683             0       7.16703      0.642883             0       8.23065      0.167942             0       8.73214             0             0      0.200599    1.0138e-15       0.12783        102427        103271        194146   1.85748e-15
     0.036036       287.817        288.73     0.0940597       7.80169       7.66431             0       7.31773      0.619451             0       7.29207      0.111832             0        8.8874             0             0      0.200555   1.02354e-15      0.128022        102428        103271        194660   1.87531e-15
    0.0365365       287.809        288.73     0.0894977       7.54251       7.64817             0       7.48373      0.598496             0       6.52429   -0.00157779             0       8.96245             0             0      0.200512   1.03179e-15      0.128209        102429        103271        195112   1.89044e-15
     0.037037       287.801       288.729      0.084974       7.29379       7.62607             0        7.6499      0.577564             0       5.78183      -0.11751             0       9.02729             0             0      0.200459   1.04025e-15      0.128439        102430        103271        195559   1.90594e-15
    0.0375375       287.793        288.73     0.0809306       7.17599        7.5293             0       7.81816      0.556913             0       5.35631     -0.265011             0       8.96446             0             0      0.200281   1.05119e-15      0.129214        102432        103271        195937   1.92598e-15
     0.038038       287.786       288.731     0.0769081       7.06771       7.42583             0       7.98563      0.536319             0       4.96236     -0.412868             0       8.89073             0             0      0.200059   1.06292e-15      0.130179        102433        103272        196309   1.94748e-15
    0.0385385       287.793       288.732     0.0731408       7.07507       7.24087             0       8.14345      0.516408             0       4.95212     -0.565061             0       8.68465             0             0      0.199307   1.08429e-15      0.133449        102435        103273        196613   1.98661e-15
     0.039039       287.803       288.733     0.0694034        7.0837       7.05061             0       8.30002      0.496606             0       4.97448     -0.714916             0       8.46765             0             0      0.198449   1.10768e-15      0.137179        102438        103273        196911   2.02949e-15
    0.0395395       287.848       288.734     0.0660192       7.10744        6.7977             0       8.44186      0.478084             0       5.38211     -0.837119             0        8.1216             0             0      0.196342   1.15517e-15      0.146341        102440        103274        197141   2.11649e-15
      0.04004       287.893       288.735     0.0626958       7.12085       6.54112             0       8.58205      0.459695             0       5.82124     -0.953671             0        7.7667             0             0      0.194195   1.20353e-15      0.155674        102443        103275        197367   2.20508e-15
    0.0405405       287.947       288.735     0.0600721       7.01548       6.24238             0       8.70331      0.442838             0       6.62277      -1.00525             0       7.31019             0             0      0.191595   1.26188e-15      0.166978        102445        103277        197542     2.312e-15
     0.041041       287.998       288.734     0.0574937       6.88568       5.94588             0       8.82214      0.426112             0       7.44352      -1.04962             0       6.84787             0             0      0.189052   1.31884e-15      0.178035        102448        103278        197715   2.41637e-15
    0.0415415       288.017       288.731     0.0554228       6.48254       5.67441             0       8.91374      0.410856             0       8.47954      -1.01341             0       6.32059             0             0      0.187144   1.36024e-15      0.186329        102450        103279        197856   2.49222e-15
     0.042042       288.034       288.727     0.0533716       6.05469       5.40844             0       9.00179       0.39545             0       9.51022     -0.971464             0       5.79103             0             0      0.185292   1.39985e-15      0.194384        102453        103281        197995   2.56479e-15
    0.0425425       288.034       288.722      0.051535       5.35746       5.20243             0       9.05115      0.378409             0       10.4826     -0.866982             0        5.2365             0             0      0.184038   1.41994e-15      0.199835        102455        103282        198119    2.6016e-15
     0.043043       288.034       288.717      0.049746       4.65854       4.99376             0        9.0971      0.361089             0       11.4284      -0.76011             0        4.6843             0             0      0.182845   1.43838e-15      0.205021        102457        103283        198244   2.63537e-15
    0.0435435       288.039       288.711     0.0484637       3.94166       4.75688             0       9.10682      0.340807             0       12.0903     -0.627842             0        4.1569             0             0      0.182301   1.43923e-15      0.207386        102459        103285        198383   2.63693e-15
     0.044044       288.046       288.706      0.047248       3.24781       4.51022             0       9.11421      0.320093             0       12.7192     -0.498802             0       3.63352             0             0      0.181795   1.43957e-15      0.209588        102461        103286        198524   2.63757e-15
    0.0445445       288.064       288.701     0.0467229       2.79252       4.16228             0       9.09745      0.294905             0       13.0067     -0.403231             0        3.1519             0             0      0.181678   1.43469e-15      0.210097        102462        103287        198685   2.62861e-15
     0.045045       288.083       288.696     0.0462572       2.36079       3.80706             0       9.07818      0.269117             0       13.2726      -0.31407             0       2.67387             0             0      0.181576    1.4311e-15      0.210538        102464        103288        198846   2.62204e-15
    0.0455455       288.107       288.693     0.0463935       2.16728       3.37816             0       9.03339      0.237271             0       13.3201     -0.289719             0       2.23213             0             0      0.181634   1.44061e-15      0.210287        102465        103289        199002   2.63946e-15