#           y             T         TMean   TPrime2Mean           U_x           U_y           U_z       UMean_x       UMean_y       UMean_z UPrime2Mea... UPrime2Mea... UPrime2Mea... UPrime2Mea... UPrime2Mea... UPrime2Mea...            O2           H2O          C3H8             p         pMean   pPrime2Mean           CO2
            0       287.701       288.023     0.0621394       21.2282             0             0        22.508             0             0       5.83066             0             0             0             0             0          0.23   5.21789e-22   1.45365e-09        102170        103243        199456   9.56015e-22
  0.000500501       287.701       288.023     0.0621569       21.2196     -0.155867             0       22.5095     0.0126547             0        5.8432      0.134967             0     0.0402745             0             0          0.23   1.48173e-21   1.94123e-08        102171        103243        198974   2.71481e-21
     0.001001       287.701       288.023     0.0621741        21.211     -0.311725             0       22.5111     0.0253159             0       5.85588      0.269941             0     0.0806627             0             0          0.23   2.45556e-21   3.85728e-08        102171        103242        198490   4.49904e-21
    0.0015015       287.702       288.023     0.0620408       21.1672     -0.463253             0        22.507     0.0412677             0       5.94054      0.408738             0      0.177763             0             0          0.23   1.03573e-20   6.57475e-07        102174        103243        197171   1.89766e-20
     0.002002       287.702       288.023     0.0619073       21.1233     -0.614927             0        22.503     0.0572016             0       6.02545      0.547663             0      0.275297             0             0          0.23      1.84e-20   1.32227e-06        102176        103243        195848   3.37122e-20
    0.0025025       287.702       288.023     0.0616975       21.0377     -0.803015             0       22.5028     0.0686929             0       6.17369       0.71863             0      0.481043             0             0      0.229997   6.15199e-20   1.34146e-05        102178        103243        193760   1.12716e-19
     0.003003       287.703       288.023     0.0614872       20.9516     -0.990868             0       22.5025     0.0802599             0        6.3234      0.889648             0      0.687555             0             0      0.229994   1.05852e-19   2.66131e-05        102181        103243        191669   1.93941e-19
    0.0035035       287.702       288.023     0.0611921       20.7764      -1.13975             0       22.4922       0.10435             0       6.71687       1.06926             0       1.02111             0             0      0.229949   3.50982e-19   0.000223044        102184        103242        189044   6.43064e-19
     0.004004       287.701       288.023     0.0608921       20.6001      -1.28925             0        22.482      0.128355             0       7.11276       1.25019             0       1.35833             0             0        0.2299   6.02157e-19   0.000432801        102187        103242        186415   1.10326e-18
    0.0045045       287.696       288.024     0.0599878       20.2912      -1.51513             0        22.482      0.141816             0       7.80922       1.59385             0       2.15044             0             0      0.229472   1.60307e-18    0.00229503        102188        103241        183339   2.93712e-18
   0.00500501        287.69       288.025     0.0591228       19.9805      -1.73909             0       22.4815      0.155505             0       8.51453       1.93717             0       2.95009             0             0      0.229024   2.62327e-18    0.00424152        102189        103241        180262   4.80633e-18
   0.00550551       287.657       288.038     0.0621562       19.4963      -1.77234             0       22.4403      0.191725             0       10.0946       2.24678             0        4.4964             0             0      0.226658   5.55392e-18     0.0145289        102189        103240        177104   1.01758e-17
   0.00600601       287.624       288.051     0.0654586        19.013      -1.80843             0       22.3989      0.227307             0       11.6726       2.56337             0       6.07159             0             0      0.224245   8.50603e-18     0.0250219        102188        103238        173950   1.55846e-17
   0.00650651        287.57       288.085     0.0909182       18.6102       -2.0782             0       22.3525      0.210373             0       13.0713       3.45422             0       10.0255             0             0      0.217938   1.32252e-17     0.0524445        102187        103234        171123    2.4231e-17
   0.00700701       287.516        288.12      0.116802       18.2111      -2.34165             0       22.3066      0.194401             0       14.4423       4.34112             0        14.002             0             0      0.211586   1.79401e-17     0.0800602        102185        103230        168304   3.28696e-17
   0.00750751       287.459       288.162      0.172593       18.0795       -2.1603             0       22.3017      0.246131             0       13.8657       4.94925             0        19.575             0             0      0.202108   2.23609e-17       0.12127        102185        103224        166092   4.09694e-17
   0.00800801       287.402       288.203      0.228915       17.9476      -1.98813             0       22.2868      0.295815             0       13.2735        5.5181             0       25.1591             0             0      0.192614   2.67637e-17      0.162547        102185        103218        163880    4.9036e-17
   0.00850851        287.34       288.206      0.317943       17.7976      -2.38088             0        21.658      0.219682             0       11.7238       3.67154             0         31.43             0             0      0.182166   3.00538e-17      0.207975        102180        103210        161663   5.50642e-17
   0.00900901       287.279       288.208      0.406167       17.6627      -2.78274             0       21.0268      0.143923             0       10.1732       1.80751             0       37.6576             0             0      0.171808   3.32937e-17      0.253008        102175        103202        159424   6.10002e-17
   0.00950951       287.219       288.189      0.450566       18.3549      -3.68197             0       20.2663     0.0885861             0       8.57049      -1.00987             0       41.5258             0             0      0.166409   3.37872e-17      0.276484        102168        103198        155998   6.19045e-17
      0.01001       287.161        288.17       0.49349       19.0333      -4.56111             0        19.499     0.0363894             0       6.99357      -3.79721             0       45.2945             0             0      0.160902     3.429e-17      0.300428        102162        103194        152549   6.28257e-17
    0.0105105       287.189       288.145      0.464073       19.0365      -4.45576             0        18.405      0.138081             0        6.6819      -5.11249             0       44.1855             0             0      0.150125   3.52429e-17      0.347285        102170        103199        147977   6.45716e-17
     0.011011       287.218        288.12      0.434997       19.0083      -4.34766             0       17.2954      0.239166             0       6.39076      -6.39052             0       42.9927             0             0       0.13913   3.62359e-17      0.395087        102177        103205        143385   6.63909e-17
    0.0115115       287.332       288.037      0.421064       17.5844      -4.11733             0       15.4979       0.31327             0       7.01181      -6.01239             0       38.0755             0             0      0.118464    3.9011e-17       0.48494        102189        103213        137941   7.14754e-17
     0.012012       287.445       287.956        0.4078       16.1562      -3.88213             0       13.7035      0.385537             0       7.61441      -5.60804             0       33.1168             0             0     0.0978897   4.17281e-17      0.574393        102201        103222        132505   7.64537e-17
    0.0125125       287.551       287.889      0.421691       14.5602      -3.44899             0       12.0375      0.383101             0       7.46612      -4.13775             0       26.4721             0             0      0.081059   4.20893e-17      0.647569        102205        103230        127417   7.71154e-17
     0.013013       287.656       287.824      0.434959       12.9829      -3.01923             0       10.3979      0.378731             0       7.30485      -2.67659             0        19.902             0             0     0.0644362   4.23995e-17      0.719843        102208        103237        122367   7.76839e-17
    0.0135135       287.718       287.852      0.424905       12.1086      -2.71655             0       9.75141      0.301892             0       6.65684      -1.55729             0       16.1272             0             0     0.0555988   4.08015e-17      0.758266        102201        103240        118725    7.4756e-17
     0.014014       287.779        287.88      0.413487       11.2533      -2.41567             0       9.13007      0.227676             0       6.00767     -0.463206             0       12.4105             0             0     0.0472162   3.93432e-17      0.794712        102195        103244        115109    7.2084e-17
    0.0145145       287.762       287.941      0.354752       11.0582      -2.17762             0       9.38271      0.244466             0        5.3184     -0.244832             0       10.7109             0             0     0.0546211   4.27328e-17      0.762517        102187        103245        112396   7.82944e-17
     0.015015       287.745       288.001      0.296263       10.8677      -1.94283             0       9.63268      0.259454             0       4.65028    -0.0336043             0       9.04794             0             0      0.062419   4.62118e-17      0.728613        102179        103247        109720   8.46687e-17
    0.0155155       287.732        288.03      0.245757       10.8264      -1.81372             0        9.7967      0.216157             0        4.6661    -0.0534534             0       8.57121             0             0     0.0829265   5.25822e-17       0.63945        102172        103247        108213   9.63405e-17
     0.016016       287.724        288.06      0.196334       10.8461      -1.69948             0       9.97983      0.170653             0       4.76589     -0.103938             0       8.13334             0             0      0.103397   5.87512e-17      0.550447        102165        103246        106725   1.07643e-16
    0.0165165       287.851       288.087      0.179657       12.7088      -2.03468             0        10.741     0.0583788             0       7.40595      -1.08114             0       8.87133             0             0      0.122755   5.88256e-17      0.466281        102159        103246        105806   1.07779e-16
     0.017017       287.976       288.114      0.163195        14.619      -2.38535             0       11.5671    -0.0579009             0       10.0646      -2.07164             0       9.59654             0             0      0.142016   5.86758e-17      0.382539        102154        103245        104885   1.07505e-16
    0.0175175       288.025       288.141      0.152872       17.8772      -3.17544             0        14.239     -0.288001             0       13.2518      -3.44017             0       9.95876             0             0      0.158503   5.21589e-17      0.310859        102159        103245        103931   9.55648e-17
     0.018018       288.068       288.166      0.142474        21.088      -3.95034             0       16.9017     -0.509945             0       16.3635      -4.77663             0        10.321             0             0      0.174968   4.55171e-17      0.239269        102164        103245        102978   8.33959e-17
    0.0185185       287.948       288.146      0.130089       23.0283      -4.31844             0       19.3193     -0.513506             0       17.4527      -5.25416             0       10.6849             0             0      0.190879   3.55331e-17      0.170092        102176        103243        102069   6.51033e-17
     0.019019       287.829       288.125       0.11756       24.9002      -4.67534             0       21.6707     -0.514816             0       18.4935      -5.70659             0        11.029             0             0      0.206548   2.56351e-17      0.101963        102187        103242        101194   4.69684e-17
    0.0195195        287.76       288.086      0.101381       25.0425      -4.74907             0       22.3444     -0.459154             0       18.3085      -5.52323             0       10.8728             0             0      0.216112   1.79143e-17      0.060383        102198        103243        101179   3.28224e-17
      0.02002       287.694       288.049     0.0853977       25.1574      -4.81749             0       23.0022     -0.404773             0       18.1052      -5.33782             0       10.7153             0             0      0.225376   1.04282e-17     0.0201039        102209        103243        101187   1.91064e-17
    0.0205205        287.69        288.03     0.0740951       24.6163       -4.7584             0       23.2779     -0.381133             0       17.4614      -5.10304             0       10.5278             0             0      0.227458   8.57404e-18     0.0110537        102218        103243        101754   1.57092e-17
     0.021021       287.687       288.013     0.0630893       24.0672      -4.69276             0       23.5383     -0.353552             0       16.8267      -4.84971             0       10.3872             0             0      0.229455     7.205e-18    0.00236919        102227        103243        102324   1.32009e-17
    0.0215215       287.707       288.014     0.0588545       23.3338      -4.47746             0       23.4493     -0.236091             0       16.4007      -4.17349             0       11.3152             0             0      0.229535   1.69017e-17    0.00202331        102238        103241        102999   3.09671e-17
     0.022022       287.727       288.015     0.0546555       22.5801      -4.26195             0       23.3365      -0.11804             0       15.9909      -3.44374             0       12.2779             0             0      0.229597   2.71496e-17    0.00175344        102249        103239        103682   4.97432e-17
    0.0225225       287.753       288.038     0.0512349        21.384       -4.0418             0       22.7061     0.0128069             0        15.934      -1.55103             0       13.9957             0             0      0.229279   4.93742e-17    0.00313508        102258        103235        104543   9.04627e-17
     0.023023        287.78       288.061     0.0478576       20.1156      -3.79451             0        22.024      0.150129             0       15.9676      0.407011             0       15.7261             0             0      0.228934   7.31508e-17    0.00463613        102267        103232        105405   1.34026e-16
    0.0235235       287.803       288.107     0.0453765       17.3468      -2.98435             0       20.2684      0.421729             0       17.8802       3.71982             0       17.7198             0             0      0.228019   1.29116e-16    0.00861361        102277        103228        106278   2.36564e-16
     0.024024       287.825       288.155     0.0432077         14.53      -2.18613             0       18.4527      0.686853             0       20.1184       6.96826             0       19.7643             0             0      0.227047    1.8772e-16     0.0128383        102286        103223        107170   3.43939e-16
    0.0245245       287.849       288.217     0.0472311       10.7605      -1.62489             0       15.4441      0.823517             0       28.8125        8.9398             0       22.8158             0             0      0.224948   2.98687e-16     0.0219658        102287        103218        108442    5.4725e-16
     0.025025       287.872       288.279     0.0515237       7.07051      -1.11742             0       12.4469      0.946146             0       37.8419       10.7201             0       25.9346             0             0      0.222848   4.08593e-16     0.0310958        102287        103212        109716   7.48619e-16
    0.0255255       287.879       288.332     0.0609297       4.89354      -1.63147             0       9.66524      0.802116             0         53.24       8.86666             0       30.3328             0             0      0.220737   4.98365e-16     0.0402749        102280        103205        111035   9.13097e-16
     0.026026       287.885       288.384     0.0702617       2.77022      -2.14364             0       6.93961      0.652317             0        68.417       6.93316             0       34.7274             0             0      0.218676    5.8533e-16     0.0492352        102272        103198        112363   1.07243e-15
    0.0265265       287.876       288.412     0.0782445       1.62476      -2.62145             0       5.23553      0.397352             0       79.5632       3.53973             0       39.0557             0             0      0.217532   6.21132e-16     0.0542085        102265        103190        113852   1.13803e-15
     0.027027       287.868        288.44     0.0859912      0.486006      -3.08997             0       3.56509      0.137334             0       90.0869      0.135865             0        43.332             0             0      0.216417    6.5641e-16     0.0590553        102258        103181        115364   1.20267e-15
    0.0275275       287.865       288.457      0.089603      -0.53545      -3.39592             0       2.48415     -0.211198             0        89.707      -3.45078             0        46.697             0             0      0.215812   6.82495e-16     0.0616879        102248        103173        117278   1.25046e-15
     0.028028       287.862       288.473     0.0930384      -1.52155      -3.70645             0       1.42161     -0.562086             0       88.8762      -7.01417             0        49.958             0             0      0.215231   7.08273e-16     0.0642149        102237        103165        119217   1.29769e-15
    0.0285285       287.861       288.484     0.0934991      -1.91171      -4.09422             0      0.669176     -0.952687             0        80.444      -10.1857             0       51.4649             0             0      0.215059   7.28888e-16      0.064961        102228        103157        121580   1.33546e-15
     0.029029       287.859       288.495     0.0938288      -2.27819      -4.48677             0    -0.0780489      -1.34169             0       71.8633      -13.2443             0       52.8632             0             0       0.21492   7.50061e-16     0.0655663        102219        103150        123952   1.37425e-15
    0.0295295       287.855       288.505       0.09203      -2.26016      -4.95706             0     -0.740605      -1.70469             0        60.872      -14.4704             0       52.4975             0             0      0.215307   7.80292e-16     0.0638842        102209        103145        126447   1.42964e-15
      0.03003       287.852       288.514     0.0901874      -2.22623      -5.43215             0      -1.39911      -2.06462             0       49.9812      -15.5631             0       52.0484             0             0      0.215733   8.11674e-16     0.0620327        102200        103139        128924   1.48714e-15
    0.0305305       287.856       288.521     0.0876586      -1.94323       -5.9824             0      -1.99422      -2.37644             0       40.6635       -14.566             0       50.2923             0             0      0.216768   8.61097e-16     0.0575285        102193        103137        131124   1.57769e-15
     0.031031       287.862       288.529     0.0852307        -1.671      -6.53014             0      -2.58328      -2.68223             0       31.6485      -13.4784             0       48.4773             0             0      0.217805   9.09809e-16     0.0530224        102186        103134        133287   1.66694e-15
    0.0315315       287.889       288.533     0.0843291      -1.56162      -7.03975             0      -3.08069      -2.89667             0       27.2119      -11.0199             0        45.771             0             0      0.218848   9.47764e-16     0.0484877        102179        103135        134877   1.73648e-15
     0.032032       287.916       288.537     0.0835284      -1.46662      -7.54253             0      -3.56708      -3.10516             0       23.0706      -8.55334             0       43.0362             0             0      0.219859   9.84086e-16     0.0440888        102173        103136        136455   1.80303e-15
    0.0325325       287.955       288.538     0.0842043      -1.58199      -7.94535             0      -3.89219      -3.22647             0       23.2487      -5.96778             0       39.8852             0             0      0.220415   9.96524e-16     0.0416747        102167        103140        137844   1.82582e-15
     0.033033       287.993       288.538     0.0849045      -1.70206      -8.33932             0      -4.20436      -3.34223             0         23.56      -3.42559             0        36.732             0             0      0.220949   1.00832e-15      0.039353        102161        103144        139264   1.84744e-15
    0.0335335       288.021       288.538      0.085949      -1.88861      -8.60805             0       -4.3333      -3.37957             0       25.7583      -1.49733             0       33.5466             0             0      0.221182    1.0111e-15     0.0383378        102155        103149        141123   1.85252e-15
     0.034034       288.047       288.538     0.0869589      -2.06007       -8.8728             0      -4.45077      -3.41339             0       27.9456      0.385406             0       30.3833             0             0      0.221406    1.0137e-15     0.0373642        102148        103154        143028   1.85729e-15
    0.0345345       288.057       288.539      0.087495      -2.02487      -9.08309             0      -4.41087      -3.39889             0       29.9831        1.6443             0       27.5233             0             0      0.221499   1.01403e-15     0.0369602        102142        103160        145569    1.8579e-15
     0.035035       288.067       288.539      0.087937      -1.97506      -9.28982             0      -4.36248      -3.38129             0       31.9288       2.86757             0       24.6914             0             0      0.221593   1.01428e-15     0.0365535        102136        103166        148136   1.85836e-15
    0.0355355       288.067       288.542     0.0871311       -1.7312      -9.44937             0      -4.20131      -3.32241             0       32.6539       3.61763             0       22.2321             0             0      0.221695   1.01346e-15     0.0361094        102131        103171        151047   1.85685e-15
     0.036036       288.068       288.545     0.0861799      -1.48215      -9.60387             0      -4.03311      -3.26033             0       33.2548       4.32279             0       19.8015             0             0      0.221797   1.01257e-15     0.0356632        102126        103175        153960   1.85521e-15
    0.0365365       288.067       288.551     0.0833576      -1.16639      -9.69318             0      -3.77426      -3.15701             0       32.2554       4.44916             0       17.7406             0             0      0.221906   1.01078e-15     0.0351897        102123        103179        156894   1.85194e-15
     0.037037       288.066       288.557     0.0804597     -0.851477      -9.77416             0      -3.51097      -3.05034             0       31.1554       4.53243             0       15.7121             0             0      0.222011   1.00898e-15      0.034734        102120        103183        159810   1.84864e-15
    0.0375375       288.066       288.566     0.0766162     -0.547152      -9.75088             0      -3.19223      -2.90159             0       28.7954       4.07626             0         14.09             0             0      0.222065   1.00702e-15     0.0345013        102119        103186        162504   1.84504e-15
     0.038038       288.067       288.575     0.0727618     -0.238597      -9.72046             0      -2.87188      -2.75062             0       26.4218        3.6033             0       12.5049             0             0      0.222115   1.00503e-15     0.0342841        102119        103189        165174    1.8414e-15
    0.0385385       288.071       288.586     0.0687752      0.121383      -9.60318             0      -2.53198      -2.57259             0       23.8841       2.92622             0       11.3701             0             0      0.222121   1.00282e-15     0.0342557        102120        103190        167553   1.83735e-15
     0.039039       288.074       288.596     0.0648428      0.485836      -9.47953             0      -2.19232      -2.39364             0       21.4012        2.2558             0        10.264             0             0      0.222125   1.00056e-15     0.0342399        102122        103192        169907   1.83321e-15
    0.0395395       288.081       288.605     0.0615512      0.903146      -9.28066             0       -1.8555      -2.20392             0       19.5663       1.66401             0       9.49671             0             0      0.222094   9.97694e-16     0.0343724        102126        103194        171970   1.82796e-15
      0.04004       288.088       288.613     0.0584016       1.32045       -9.0753             0      -1.51854      -2.01458             0       17.7873       1.08183             0       8.74228             0             0       0.22206   9.94898e-16     0.0345201        102130        103195        174011   1.82284e-15
    0.0405405       288.097       288.619     0.0568848       1.73768      -8.79528             0      -1.18013      -1.82953             0       16.6506      0.610217             0       8.13584             0             0      0.221986   9.92853e-16     0.0348422        102136        103196        175790   1.81909e-15
     0.041041       288.106       288.625     0.0554524       2.14908      -8.50733             0     -0.840083       -1.6452             0       15.5328       0.14987             0       7.53219             0             0       0.22191   9.90954e-16     0.0351758        102142        103197        177542   1.81561e-15
    0.0415415       288.114        288.63     0.0549641       2.49529      -8.13054             0       -0.4818      -1.46898             0       14.6263     -0.184348             0       6.95972             0             0      0.221803    9.9069e-16     0.0356369        102148        103198        179002   1.81513e-15
     0.042042       288.122       288.635     0.0545108       2.83333      -7.74737             0      -0.12185      -1.29393             0       13.7387     -0.502446             0       6.38643             0             0      0.221693   9.90589e-16     0.0361168        102155        103199        180434   1.81494e-15
    0.0425425       288.131        288.64     0.0544381       3.08227      -7.29459             0      0.256275      -1.13155             0       13.0583     -0.644766             0       5.80412             0             0      0.221536    9.9227e-16      0.036802        102162        103201        181560   1.81802e-15
     0.043043       288.139       288.645     0.0543883        3.3208      -6.83824             0      0.633819     -0.970822             0       12.4303     -0.770691             0       5.22217             0             0      0.221369   9.94248e-16      0.037525        102169        103202        182659   1.82165e-15
    0.0435435       288.149        288.65     0.0545811       3.44876      -6.34395             0       1.00519     -0.827655             0       12.3596     -0.722351             0       4.64403             0             0      0.221111   9.99392e-16     0.0386499        102175        103204        183463   1.83107e-15
     0.044044        288.16       288.654      0.054736       3.56792      -5.85036             0       1.37481     -0.686188             0       12.3474     -0.662798             0        4.0707             0             0      0.220838     1.005e-15     0.0398365        102181        103205        184245   1.84134e-15
    0.0445445       288.174       288.656     0.0544988       3.59575      -5.36406             0       1.72624     -0.562321             0       12.9416     -0.487032             0       3.54728             0             0      0.220418   1.01537e-15      0.041662        102186        103207        184806   1.86034e-15
     0.045045       288.189       288.658     0.0541367       3.61932      -4.88189             0       2.07318     -0.441035             0       13.5706     -0.308502             0       3.02958             0             0      0.219992   1.02589e-15     0.0435123        102191        103209        185354   1.87962e-15
    0.0455455       288.208       288.659     0.0525132       3.59977      -4.44145             0       2.37454     -0.345841             0       14.5524     -0.102036             0       2.56979             0             0      0.219509   1.03793e-15      0.045614        102194        103211        185763   1.90168e-15