#           y             T         TMean   TPrime2Mean           U_x           U_y           U_z       UMean_x       UMean_y       UMean_z UPrime2Mea... UPrime2Mea... UPrime2Mea... UPrime2Mea... UPrime2Mea... UPrime2Mea...            O2           H2O          C3H8             p         pMean   pPrime2Mean           CO2
  1.11022e-19        287.69       288.043     0.0891082       24.6667  -2.00243e-16             0       22.2189  -2.97378e-16             0       11.3691   1.63989e-16             0   1.12322e-16             0             0          0.23    1.0596e-19   1.09821e-06        102222        103226        144142   1.94139e-19
  0.000500501        287.69       288.044     0.0891483       24.6771     0.0661425             0       22.2203     0.0157531             0       11.3927     -0.156738             0     0.0314566             0             0      0.229999   1.91662e-19   5.39479e-06        102222        103226        144079   3.51161e-19
     0.001001       287.691       288.044     0.0891895       24.6876      0.132304             0       22.2218     0.0315063             0       11.4164     -0.313486             0      0.063043             0             0      0.229998   2.78061e-19   9.80978e-06        102222        103226        144016    5.0946e-19
    0.0015015       287.691       288.048     0.0898083       24.7158      0.207952             0       22.2245     0.0472656             0       11.4745     -0.474711             0      0.159433             0             0      0.229983   7.12091e-19   7.33168e-05        102221        103226        143836   1.30468e-18
     0.002002       287.692       288.051      0.090448       24.7441      0.283729             0       22.2273     0.0630161             0       11.5329     -0.636017             0      0.256252             0             0      0.229968   1.15037e-18   0.000138984        102221        103226        143655    2.1077e-18
    0.0025025       287.693       288.065     0.0962748       24.7983      0.391753             0       22.2334      0.076596             0       11.6931     -0.817306             0      0.459895             0             0      0.229829   2.64718e-18    0.00074248        102221        103225        143436   4.85012e-18
     0.003003       287.694       288.079      0.102185       24.8526      0.499833             0       22.2396     0.0901773             0        11.854     -0.998903             0      0.664703             0             0      0.229686    4.1595e-18      0.001364        102220        103225        143217   7.62098e-18
    0.0035035       287.702       288.101      0.121903       24.9365      0.617287             0       22.2607      0.104004             0       12.1219      -1.23148             0        1.0626             0             0      0.228856    8.2432e-18      0.004972        102220        103224        143014   1.51031e-17
     0.004004        287.71       288.123      0.141735       25.0199      0.735522             0        22.282      0.117801             0       12.3907      -1.46492             0       1.46232             0             0      0.228011    1.2359e-17    0.00864851        102220        103223        142811    2.2644e-17
    0.0045045       287.744       288.137      0.175723       25.0425      0.950609             0       22.3331       0.12797             0       12.7674      -1.80467             0       2.08799             0             0      0.225211    2.0455e-17      0.020821        102220        103222        142685   3.74773e-17
   0.00500501       287.777       288.152      0.209713       25.0648       1.16532             0       22.3847      0.138195             0       13.1441      -2.14441             0       2.71373             0             0      0.222379   2.85905e-17     0.0331337        102221        103221        142558   5.23831e-17
   0.00550551       287.865       288.157      0.243982       25.0564       1.34287             0       22.4908      0.154052             0        13.513      -2.48199             0       3.34572             0             0      0.216355   4.06422e-17      0.059327        102219        103220        142436    7.4464e-17
   0.00600601       287.952       288.162      0.278017       25.0442       1.52077             0       22.5959       0.16991             0       13.8797      -2.81929             0       3.97622             0             0      0.210314   5.26885e-17     0.0855905        102217        103219        142312   9.65351e-17
   0.00650651       288.024       288.164      0.292685       24.7102       1.72754             0        22.611      0.185895             0       14.0705      -3.13323             0        4.4844             0             0      0.202945   6.42965e-17      0.117629        102216        103217        142082   1.17803e-16
   0.00700701       288.095       288.166      0.306796       24.3676       1.93505             0       22.6217      0.201904             0       14.2564       -3.4446             0        4.9914             0             0      0.195598   7.58646e-17      0.149575        102214        103216        141852   1.38998e-16
   0.00750751       288.096       288.191      0.281707       23.4246       2.19481             0       22.3231      0.219599             0       14.0954      -3.57531             0       5.41518             0             0      0.189731   8.46164e-17      0.175082        102215        103215        141544   1.55033e-16
   0.00800801       288.096       288.216      0.256371         22.48       2.44999             0        22.016      0.237469             0       13.9242      -3.70119             0       5.83864             0             0      0.183896   9.33577e-17      0.200452        102216        103214        141234   1.71049e-16
   0.00850851       288.036       288.256      0.215886       21.4327       2.42324             0       21.1903      0.266141             0       13.1276      -3.53065             0       6.24259             0             0      0.179984   1.01445e-16      0.217461        102216        103213        140863   1.85865e-16
   0.00900901       287.976       288.295      0.175854         20.39       2.38542             0        20.356       0.29472             0       12.3215      -3.35493             0       6.64114             0             0       0.17607   1.09569e-16      0.234477        102217        103212        140489   2.00751e-16
   0.00950951       287.907       288.295      0.160555       19.6007       1.74337             0       19.0475      0.318198             0        10.997       -2.8966             0       6.74445             0             0      0.172087   1.19747e-16      0.251796        102218        103211        139965   2.19399e-16
      0.01001        287.84       288.295      0.145831       18.8034       1.10362             0       17.7385      0.341048             0       9.68533      -2.43999             0       6.84154             0             0       0.16807   1.30006e-16       0.26926        102218        103211        139438   2.38195e-16
    0.0105105       287.834       288.252      0.159237        17.615      0.576825             0       16.4046       0.33311             0       9.00522      -2.06784             0       6.63313             0             0      0.162426   1.44246e-16      0.293801        102219        103211        138757   2.64286e-16
     0.011011       287.828       288.208        0.1731       16.4242     0.0606578             0       15.0813      0.323951             0       8.35894      -1.71187             0       6.43162             0             0      0.156762   1.58429e-16      0.318426        102220        103211        138076   2.90272e-16
    0.0115115       287.787       288.149      0.207278       15.1245     0.0169639             0       14.2274      0.260526             0         9.217      -2.07528             0       6.53715             0             0      0.150245   1.70061e-16       0.34676        102218        103211        137374   3.11583e-16
     0.012012       287.745        288.09      0.241569       13.8457    -0.0258468             0       13.3864      0.197153             0       10.1081      -2.45337             0       6.65574             0             0      0.143703   1.81499e-16      0.375205        102217        103211        136671   3.32539e-16
    0.0125125       287.673       288.057      0.280525       13.4176    -0.0327445             0       13.0667      0.135879             0        12.345      -3.42868             0       7.30537             0             0      0.136118   1.85042e-16      0.408181        102215        103210        135946   3.39032e-16
     0.013013       287.602       288.024       0.31895       13.0006    -0.0362199             0        12.755     0.0745599             0       14.6137      -4.40792             0       7.96707             0             0      0.128527   1.88488e-16      0.441188        102213        103210        135219   3.45345e-16
    0.0135135        287.57       288.029      0.337506       13.0034     0.0885071             0        12.745     0.0115872             0       18.0765      -5.53448             0       9.08113             0             0      0.120666   1.88252e-16      0.475366        102212        103208        134452   3.44912e-16
     0.014014       287.538       288.035      0.355268       13.0095      0.217821             0       12.7422    -0.0510059             0       21.5443      -6.65711             0       10.2071             0             0      0.112911   1.87952e-16      0.509084        102211        103207        133685   3.44363e-16
    0.0145145       287.514       288.062      0.345466       13.1325      0.506368             0       12.9839      -0.10042             0        25.187      -7.64366             0       11.7459             0             0      0.108821   1.85447e-16      0.526863        102209        103205        132900   3.39774e-16
     0.015015       287.489       288.089      0.335477       13.2543      0.795395             0        13.232     -0.149612             0       28.8035      -8.62196             0       13.2941             0             0      0.104904   1.82923e-16      0.543897        102208        103202        132116    3.3515e-16
    0.0155155       287.465       288.119      0.319463       13.3358       1.09992             0       13.6838     -0.191646             0       31.5761      -9.33338             0       15.1467             0             0      0.106527   1.79775e-16      0.536839        102206        103200        131378   3.29381e-16
     0.016016       287.443       288.149      0.303384       13.4288       1.41483             0       14.1427     -0.233006             0       34.3418      -10.0268             0       17.0021             0             0      0.108257   1.76643e-16      0.529319        102203        103197        130645   3.23642e-16
    0.0165165       287.473       288.171      0.285356       13.8678        2.0438             0       14.8167     -0.253974             0       36.8972      -10.1754             0       18.9438             0             0      0.113199   1.73993e-16      0.507831        102201        103193        130100   3.18787e-16
     0.017017       287.505       288.192      0.267253        14.364       2.69591             0       15.5011     -0.273025             0       39.4761      -10.2773             0       20.8838             0             0      0.118202   1.71247e-16      0.486079        102198        103190        129566   3.13756e-16
    0.0175175       287.589       288.197      0.247068       16.4865       4.00517             0       16.4777     -0.237614             0       42.7194      -9.05572             0       22.7759             0             0      0.124929   1.65768e-16      0.456829        102189        103186        129329   3.03718e-16
     0.018018       287.671       288.201      0.227334       18.6301       5.31176             0       17.4513     -0.200376             0       45.9596      -7.79583             0       24.6693             0             0      0.131841   1.59988e-16      0.426778        102180        103182        129107   2.93127e-16
    0.0185185       287.663       288.184      0.219656       21.3366       6.54714             0       18.3454     -0.114192             0       49.1138       -5.5104             0       26.5972             0             0      0.143681    1.4613e-16        0.3753        102166        103178        129296   2.67737e-16
     0.019019       287.652       288.167      0.212188       24.0022       7.76254             0       19.2241    -0.0290134             0         52.21      -3.23061             0       28.5316             0             0      0.155722   1.32162e-16      0.322946        102152        103174        129505   2.42145e-16
    0.0195195       287.554       288.148      0.210008       25.6292       8.47234             0       19.7137     0.0306944             0        53.838      -1.09327             0       30.6291             0             0      0.172867   1.15393e-16      0.248404        102138        103169        130261   2.11421e-16
      0.02002       287.458       288.129      0.207606       27.2211       9.17006             0       20.1921     0.0893602             0       55.3734        1.0241             0       32.7417             0             0      0.189776   9.91763e-17      0.174888        102124        103165        131036   1.81709e-16
    0.0205205        287.42       288.124       0.19984       27.9694       9.57771             0       20.4014       0.12302             0       54.6844       2.66204             0       35.2181             0             0      0.201016   9.62338e-17      0.126017        102107        103161        132298   1.76318e-16
     0.021021       287.385       288.119      0.191872       28.6912       9.97583             0       20.6009      0.155987             0       53.9087       4.28342             0       37.7062             0             0      0.211938   9.43853e-17     0.0785322        102090        103156        133574   1.72931e-16
    0.0215215       287.404       288.124      0.179299       28.8076       10.1568             0       20.5796      0.173126             0       51.1535       5.52689             0       40.4609             0             0       0.21558   1.17488e-16     0.0626959        102071        103151        135183   2.15261e-16
     0.022022       287.424       288.129      0.166721       28.8967       10.3285             0       20.5464      0.189015             0       48.3496       6.75607             0       43.2205             0             0      0.219145   1.41575e-16     0.0471972        102052        103146        136800   2.59391e-16
    0.0225225       287.456       288.142       0.15405       28.3931          10.3             0       20.2547      0.177744             0       44.4876       7.67483             0       46.0872             0             0      0.221022   1.87015e-16     0.0390351        102032        103141        138601   3.42646e-16
     0.023023       287.489       288.156      0.141551       27.8761       10.2694             0       19.9495      0.164459             0        40.646       8.57419             0       48.9573             0             0      0.222823   2.32303e-16     0.0312042        102012        103136        140407   4.25622e-16
    0.0235235       287.523       288.178       0.13264       27.0806        10.192             0       19.3641      0.109417             0       37.2253       9.07139             0        51.898             0             0      0.223045    2.7444e-16      0.030241        101993        103131        142312   5.02825e-16
     0.024024       287.557         288.2      0.123918       26.2892        10.124             0       18.7747     0.0523783             0       33.8973       9.56193             0       54.8419             0             0      0.223242   3.16275e-16     0.0293843        101973        103126        144222   5.79476e-16
    0.0245245       287.578       288.227      0.118925       25.5779       10.2414             0       18.1064    -0.0442468             0       32.4079       9.92022             0         57.85             0             0      0.222953   3.52139e-16     0.0306382        101954        103122        146243   6.45185e-16
     0.025025       287.599       288.253      0.114057       24.8654       10.3662             0       17.4449     -0.141412             0       30.9756       10.2923             0       60.8606             0             0      0.222664   3.87637e-16     0.0318945        101935        103117        148273   7.10223e-16
    0.0255255       287.614       288.274      0.111554       24.1317       10.6326             0       16.9136     -0.248848             0       30.6304       10.9274             0       63.9198             0             0      0.222365   4.16172e-16     0.0331968        101917        103113        150472   7.62505e-16
     0.026026       287.629       288.295      0.109055       23.3862       10.8987             0       16.3851     -0.356657             0       30.2718       11.5652             0       66.9733             0             0      0.222074   4.43776e-16     0.0344588        101899        103108        152685   8.13081e-16
    0.0265265        287.64       288.308      0.106609       22.4273       11.1588             0       15.9087     -0.471286             0       29.6676        12.251             0       69.9215             0             0      0.221953   4.54415e-16     0.0349864        101881        103102        155143   8.32574e-16
     0.027027       287.651        288.32      0.104119       21.4518       11.4152             0       15.4271     -0.586759             0       29.0442        12.925             0       72.8573             0             0      0.221839   4.64604e-16     0.0354839        101864        103096        157617   8.51242e-16
    0.0275275       287.661        288.33      0.100859       20.1855       11.6072             0       14.8561     -0.717016             0       28.0857       13.3903             0       75.5748             0             0      0.221846   4.66912e-16     0.0354527        101849        103090        160356   8.55469e-16
     0.028028       287.671       288.339     0.0976371       18.9022       11.7925             0       14.2797     -0.848129             0        27.122       13.8457             0       78.2693             0             0      0.221855   4.69127e-16     0.0354123        101834        103083        163107   8.59528e-16
    0.0285285       287.681       288.345     0.0950626       17.3335       11.8636             0       13.6103     -0.993659             0       26.0701       14.1327             0       80.5772             0             0        0.2219   4.69793e-16     0.0352164        101822        103076        166041   8.60748e-16
     0.029029       287.692       288.351     0.0926074       15.7512       11.9259             0       12.9355      -1.13977             0       25.0339       14.4138             0       82.8503             0             0      0.221946   4.70444e-16     0.0350176        101810        103070        168971    8.6194e-16
    0.0295295       287.705       288.353     0.0920917       13.9461       11.8424             0        12.173      -1.29529             0       24.2514       14.5983             0        84.558             0             0      0.222002   4.70859e-16     0.0347725        101803        103063        171856   8.62702e-16
      0.03003       287.717       288.354     0.0916216       12.1336        11.748             0        11.406      -1.45148             0        23.511       14.7841             0       86.2213             0             0      0.222058   4.71252e-16     0.0345316        101796        103056        174720   8.63422e-16
    0.0305305       287.727       288.352      0.091867       10.2055       11.4813             0       10.5704       -1.6182             0       23.4306        14.991             0       87.1879             0             0      0.222098   4.71289e-16     0.0343566        101795        103049        177258   8.63489e-16
     0.031031       287.737       288.351     0.0920631       8.27909       11.2039             0        9.7313      -1.78482             0       23.4075        15.206             0       88.1058             0             0      0.222137   4.71294e-16     0.0341877        101794        103043        179764   8.63499e-16
    0.0315315       287.746       288.349     0.0915133       6.37888       10.7657             0       8.83942      -1.94978             0       24.2513       15.5449             0       88.2878             0             0      0.222155   4.70816e-16     0.0341107        101799        103038        181776   8.62623e-16
     0.032032       287.755       288.348     0.0909662       4.48973       10.3185             0       7.94543      -2.11432             0       25.1381       15.8884             0       88.4266             0             0      0.222172   4.70347e-16     0.0340344        101804        103032        183758   8.61763e-16
    0.0325325       287.765       288.346     0.0904585       2.76241       9.74165             0        7.0206      -2.27269             0       26.6532       16.2992             0       87.9343             0             0      0.222188   4.70003e-16     0.0339657        101814        103028        185302   8.61132e-16
     0.033033       287.775       288.344     0.0900009       1.04681       9.16081             0        6.0953      -2.43037             0       28.1641       16.7003             0       87.4075             0             0      0.222204   4.69672e-16     0.0338951        101824        103023        186832   8.60527e-16
    0.0335335       287.783       288.342     0.0902525      -0.50286       8.52405             0        5.1634       -2.5783             0       29.6155       16.9635             0       86.3942             0             0      0.222227   4.69541e-16     0.0337973        101838        103020        188172   8.60286e-16
     0.034034       287.791        288.34     0.0905354      -2.04114       7.88702             0       4.23155      -2.72549             0       31.0094       17.1964             0       85.3507             0             0      0.222251   4.69307e-16     0.0336924        101852        103017        189513   8.59858e-16
    0.0345345       287.795        288.34     0.0912485      -3.42335        7.2463             0       3.30058      -2.86274             0       31.6154       17.0145             0       83.8935             0             0      0.222298   4.67673e-16     0.0334888        101868        103015        190881   8.56863e-16
     0.035035       287.798        288.34     0.0919695      -4.79212        6.6052             0       2.36929      -2.99951             0       32.1416       16.7867             0       82.4056             0             0      0.222347   4.65826e-16     0.0332743        101883        103013        192248    8.5348e-16
    0.0355355       287.796       288.342     0.0927942      -5.98228       5.95906             0       1.43389      -3.12985             0       31.6087       15.9489             0       80.5093             0             0      0.222429   4.61157e-16     0.0329163        101900        103012        193610   8.44925e-16
     0.036036       287.794       288.344     0.0936328      -7.15298        5.3147             0      0.497706      -3.25989             0       31.0347       15.0679             0       78.5791             0             0      0.222514   4.55962e-16     0.0325496        101917        103011        194949   8.35407e-16
    0.0365365       287.781       288.346     0.0946498      -8.07301       4.69339             0     -0.448512      -3.38617             0       29.9308       13.6278             0       76.2129             0             0      0.222624   4.43992e-16     0.0320699        101933        103012        195995   8.13476e-16
     0.037037       287.768       288.349      0.095705      -8.97444       4.07761             0      -1.39518      -3.51141             0       28.8559       12.1743             0       73.8137             0             0      0.222728   4.31757e-16     0.0316162        101950        103013        196993   7.91059e-16
    0.0375375       287.746       288.352     0.0972388       -9.6433       3.53107             0      -2.34741      -3.62362             0       28.1446        10.553             0       71.0003             0             0      0.222758   4.16199e-16     0.0314854        101965        103016        197369   7.62554e-16
     0.038038       287.724       288.354     0.0988233      -10.3123       2.99154             0      -3.29813      -3.73359             0       27.5126       8.96312             0        68.159             0             0      0.222757   4.01079e-16     0.0314905        101980        103019        197682   7.34852e-16
    0.0385385       287.696       288.355      0.101023      -10.9828        2.5373             0      -4.23047      -3.81618             0        27.844       7.75428             0       64.9783             0             0      0.222376   3.91286e-16     0.0331457        101993        103023        197225   7.16908e-16
     0.039039       287.668       288.356      0.103279      -11.6557       2.08944             0      -5.15777      -3.89546             0        28.274       6.60937             0       61.7807             0             0      0.221938   3.82707e-16     0.0350499        102007        103028        196711   7.01191e-16
    0.0395395       287.639       288.356      0.106187      -12.3566       1.71688             0      -6.02543      -3.93542             0       29.8684        6.2201             0       58.3818             0             0      0.220824    3.8849e-16     0.0398961        102020        103035        195512   7.11786e-16
      0.04004       287.614       288.355      0.109105      -13.0349       1.34869             0      -6.88416      -3.97146             0       31.5599       5.89866             0       54.9748             0             0      0.219546    3.9868e-16     0.0454503        102033        103042        194271   7.30456e-16
    0.0405405       287.625       288.352      0.112132      -13.4545       1.03087             0      -7.64003      -3.96251             0        34.369       6.35739             0       51.4743             0             0      0.216396    4.5955e-16     0.0591472        102045        103050        192552   8.41982e-16
     0.041041       287.639        288.35      0.115137      -13.8486      0.715123             0      -8.38334       -3.9493             0       37.2395       6.86353             0       47.9705             0             0      0.213093   5.24927e-16      0.073509        102058        103058        190815   9.61764e-16
    0.0415415       287.699       288.348      0.117908      -13.9581      0.422568             0      -8.98605      -3.88842             0       40.7971       7.90052             0       44.4305             0             0      0.208078   6.40754e-16     0.0953132        102070        103068        188873   1.17398e-15
     0.042042       287.757       288.345      0.120708      -14.0639      0.131178             0      -9.57395      -3.82309             0       44.3581       8.95387             0       40.8945             0             0      0.203181   7.54795e-16      0.116605        102081        103077        186940   1.38293e-15
    0.0425425       287.797       288.343      0.123819      -14.1283     -0.147501             0      -10.0004      -3.70932             0       47.9567       10.1856             0       37.4029             0             0      0.199569   8.49356e-16      0.132308        102092        103086        185106   1.55618e-15
     0.043043       287.833        288.34      0.126866      -14.1896     -0.426005             0      -10.4122      -3.59062             0       51.5426        11.404             0       33.9267             0             0        0.1962   9.39826e-16      0.146956        102102        103095        183299   1.72194e-15
    0.0435435       287.827       288.337      0.129236      -14.2189     -0.702644             0      -10.6672      -3.41943             0       54.9928       12.4813             0        30.613             0             0      0.195411   9.86801e-16      0.150388        102111        103103        181790   1.80801e-15
     0.044044       287.822       288.334      0.131422      -14.2017     -0.970277             0      -10.9084      -3.24393             0       58.4838       13.5363             0       27.3223             0             0      0.194787   1.03174e-15      0.153102        102120        103112        180316   1.89035e-15
    0.0445445       287.823       288.329      0.131715      -13.7032      -1.14459             0      -11.0072      -3.02364             0       62.3979       14.3604             0       24.2714             0             0      0.195875   1.05563e-15      0.148369        102127        103120        179209   1.93411e-15
     0.045045       287.826       288.323       0.13204      -13.1363      -1.30977             0      -11.0942      -2.80043             0       66.4477       15.1563             0       21.2417             0             0      0.197121   1.07769e-15      0.142951        102135        103127        178132   1.97454e-15
    0.0455455       287.847       288.315      0.132687      -11.8772      -1.38275             0       -11.061      -2.54774             0       71.8701       15.6662             0       18.4262             0             0      0.199959   1.08132e-15      0.130611        102141        103135        177368   1.98118e-15