#           y             T         TMean   TPrime2Mean           U_x           U_y           U_z       UMean_x       UMean_y       UMean_z UPrime2Mea... UPrime2Mea... UPrime2Mea... UPrime2Mea... UPrime2Mea... UPrime2Mea...            O2           H2O          C3H8             p         pMean   pPrime2Mean           CO2
  1.11022e-19       288.189       288.606     0.0947498       28.3469  -4.58145e-17             0       11.9268   5.07746e-18             0       32.1499   3.08066e-17             0   5.10048e-18             0             0      0.181382   2.06857e-15      0.211381        102560        103248        251146   3.79001e-15
  0.000500501       288.197       288.614      0.091622       28.1751     -0.206537             0       11.9233     0.0228897             0       32.0318      0.138879             0     0.0229935             0             0      0.180918   2.11023e-15      0.213399        102560        103248        251143   3.86633e-15
     0.001001       288.206       288.623     0.0884908       28.0023     -0.413068             0       11.9197     0.0457791             0       31.9129       0.27776             0     0.0460533             0             0      0.180454   2.15192e-15      0.215418        102560        103248        251141   3.94273e-15
    0.0015015       288.216       288.636     0.0836392       27.3881     -0.617009             0        11.905     0.0685013             0       31.3696      0.417303             0       0.10217             0             0      0.179849   2.21175e-15      0.218046        102559        103248        251132   4.05235e-15
     0.002002       288.227       288.649     0.0787942       26.7727      -0.82098             0       11.8903     0.0912173             0       30.8248      0.556763             0      0.158441             0             0      0.179249   2.27134e-15      0.220655        102559        103248        251124   4.16151e-15
    0.0025025       288.208       288.656     0.0755997       25.8864      -1.03264             0       11.8666      0.112377             0       29.9175      0.675546             0      0.252966             0             0      0.179706    2.2694e-15      0.218668        102559        103248        251103   4.15796e-15
     0.003003       288.189       288.664     0.0724083       25.0005      -1.24436             0        11.843      0.133525             0       29.0102      0.794143             0      0.347705             0             0      0.180168    2.2672e-15      0.216659        102558        103248        251082   4.15394e-15
    0.0035035       288.141       288.668     0.0697318       24.1815      -1.46611             0       11.8192      0.152765             0       28.0952      0.881875             0      0.477756             0             0      0.181436   2.22229e-15       0.21115        102557        103247        251046   4.07164e-15
     0.004004       288.092       288.672     0.0670604       23.3634      -1.68779             0       11.7954      0.171995             0       27.1807      0.969433             0      0.608045             0             0      0.182705   2.17732e-15      0.205629        102557        103247        251010   3.98925e-15
    0.0045045       288.046       288.674     0.0650101        22.654      -1.90204             0        11.772       0.18987             0       26.3268       1.03552             0      0.767802             0             0      0.184282   2.12563e-15      0.198773        102556        103247        250950   3.89455e-15
   0.00500501       287.999       288.676      0.062966       21.9454      -2.11597             0       11.7485      0.207734             0       25.4735       1.10144             0      0.927785             0             0      0.185875   2.07355e-15      0.191847        102555        103247        250889   3.79912e-15
   0.00550551       287.933       288.677      0.061525       21.3185       -2.2997             0       11.7245      0.224533             0       24.6752       1.15071             0       1.11014             0             0      0.189084   1.98227e-15      0.177896        102554        103247        250801   3.63188e-15
   0.00600601       287.868       288.678     0.0600959       20.6933      -2.48305             0       11.7004       0.24132             0       23.8784       1.19977             0        1.2927             0             0      0.192321   1.89015e-15      0.163823        102553        103246        250713   3.46311e-15
   0.00650651       287.781       288.678     0.0596509       20.2041      -2.63624             0       11.6781      0.257126             0       23.2049       1.23087             0       1.49144             0             0      0.197876   1.72907e-15      0.139668        102552        103246        250596   3.16798e-15
   0.00700701       287.694       288.677     0.0592235       19.7186      -2.78908             0       11.6558      0.272924             0       22.5339       1.26174             0       1.69038             0             0      0.203443   1.56739e-15      0.115467        102551        103246        250479   2.87174e-15
   0.00750751       287.663       288.676     0.0600413         19.49      -2.91701             0       11.6384      0.288066             0        22.048       1.27553             0        1.9034             0             0      0.209743   1.36312e-15     0.0880751        102549        103245        250333   2.49748e-15
   0.00800801       287.634       288.674     0.0608636        19.266      -3.04475             0       11.6211      0.303203             0        21.565       1.28907             0       2.11666             0             0      0.216009   1.15944e-15     0.0608322        102548        103245        250187   2.12432e-15
   0.00850851       287.712       288.672     0.0619571       19.3227      -3.16121             0       11.6085      0.318108             0       21.2601       1.28716             0       2.34441             0             0      0.220163   9.92362e-16     0.0427684        102547        103245        250017   1.81819e-15
   0.00900901       287.792        288.67     0.0630389       19.3824      -3.27784             0       11.5959      0.333012             0       20.9569       1.28502             0       2.57245             0             0      0.224267   8.26686e-16     0.0249251        102546        103245        249847   1.51464e-15
   0.00950951       287.915        288.67     0.0634838       19.5968      -3.40397             0       11.5834       0.34791             0       20.7464       1.27069             0       2.81601             0             0      0.225604   7.37626e-16     0.0191116        102545        103244        249661   1.35147e-15
      0.01001       288.037       288.669     0.0639194       19.8117      -3.53075             0       11.5708      0.362813             0       20.5356       1.25626             0        3.0599             0             0      0.226918    6.4956e-16     0.0133993        102543        103244        249475   1.19011e-15
    0.0105105       288.121        288.67     0.0638982       20.0494      -3.68963             0       11.5531      0.377969             0       20.3178       1.23679             0       3.32003             0             0      0.227091   6.10223e-16      0.012646        102541        103244        249282   1.11804e-15
     0.011011       288.204        288.67     0.0638759       20.2866      -3.84944             0       11.5351      0.393135             0       20.0981       1.21734             0        3.5805             0             0      0.227253   5.71793e-16     0.0119447        102540        103244        249089   1.04763e-15
    0.0115115       288.246       288.671     0.0638048       20.4966      -4.05048             0       11.5082      0.408693             0       19.7985       1.19874             0       3.85637             0             0      0.226881   5.73663e-16     0.0135598        102537        103243        248897   1.05106e-15
     0.012012       288.288       288.672     0.0637324       20.7052      -4.25194             0        11.481       0.42426             0       19.4958       1.18022             0       4.13252             0             0      0.226477   5.77545e-16     0.0153155        102535        103243        248705   1.05817e-15
    0.0125125       288.329       288.673     0.0636076       20.8529      -4.47041             0       11.4424      0.440143             0       19.0702       1.16507             0       4.41987             0             0      0.224759   6.63211e-16     0.0227884        102532        103242        248531   1.21513e-15
     0.013013        288.37       288.675      0.063477        20.995      -4.68864             0       11.4034      0.456028             0       18.6401       1.15009             0       4.70731             0             0      0.222987   7.52023e-16     0.0304928        102529        103242        248358   1.37785e-15
    0.0135135       288.433       288.676      0.063126        20.931      -4.89762             0       11.3501      0.472013             0        18.047       1.14148             0       4.99836             0             0       0.21922   9.58694e-16     0.0468698        102525        103242        248207   1.75651e-15
     0.014014       288.496       288.678     0.0627762        20.855      -5.10559             0       11.2963      0.487984             0       17.4478        1.1331             0       5.28921             0             0      0.215452   1.16557e-15     0.0632517        102522        103241        248056   2.13555e-15
    0.0145145       288.549        288.68     0.0624668       20.3615      -5.27837             0       11.2245      0.503454             0        16.638       1.13289             0       5.57349             0             0      0.211644   1.37968e-15     0.0798075        102517        103241        247935   2.52783e-15
     0.015015       288.601       288.681     0.0621608       19.8537      -5.44997             0        11.152       0.51888             0       15.8216       1.13277             0       5.85723             0             0      0.207891   1.59047e-15     0.0961258        102513        103240        247814   2.91404e-15
    0.0155155       288.617       288.683     0.0619626       18.8786      -5.58332             0       11.0584      0.532856             0       14.7891       1.13566             0       6.12325             0             0      0.205904   1.69383e-15      0.104764        102510        103240        247724   3.10341e-15
     0.016016       288.633       288.685     0.0617613       17.8962      -5.71626             0       10.9641      0.546747             0       13.7522       1.13819             0       6.38835             0             0      0.203955   1.79471e-15      0.113237        102506        103240        247635   3.28825e-15
    0.0165165       288.629       288.686     0.0614683       16.6887      -5.83675             0       10.8485      0.558057             0       12.5832       1.13007             0       6.62516             0             0      0.203149   1.82075e-15      0.116744        102504        103239        247552   3.33594e-15
     0.017017       288.625       288.688     0.0611792        15.486      -5.95684             0       10.7322      0.569246             0       11.4148       1.12109             0       6.86049             0             0      0.202343   1.84602e-15      0.120249        102502        103239        247469   3.38225e-15
    0.0175175       288.611       288.689     0.0610029       14.4185      -6.06576             0        10.598      0.577005             0       10.2619       1.08756             0       7.05334             0             0       0.20155   1.84976e-15      0.123694        102502        103239        247371    3.3891e-15
     0.018018       288.596        288.69     0.0608348       13.3631      -6.17317             0       10.4633      0.584624             0       9.11522       1.05287             0       7.24388             0             0      0.200731   1.85323e-15      0.127255        102501        103238        247272   3.39547e-15
    0.0185185       288.564       288.691     0.0608859       12.6303      -6.24012             0       10.3171      0.588517             0       8.13378      0.987056             0       7.37263             0             0      0.199205   1.84963e-15      0.133889        102502        103238        247144   3.38887e-15
     0.019019       288.532       288.691     0.0609381       11.9082      -6.30509             0       10.1706      0.592265             0       7.16306      0.920037             0       7.49829             0             0      0.197684   1.84601e-15      0.140503        102502        103238        247013   3.38223e-15
    0.0195195       288.507       288.692      0.061021       11.4569      -6.32005             0       10.0209      0.592372             0       6.46364      0.822621             0       7.54535             0             0      0.196285   1.84163e-15      0.146587        102503        103238        246851    3.3742e-15
      0.02002       288.484       288.693     0.0610799       11.0087      -6.33534             0       9.87135      0.592339             0        5.7768      0.724226             0       7.58898             0             0      0.194903   1.83736e-15      0.152594        102504        103237        246688   3.36639e-15
    0.0205205       288.487       288.695     0.0605622        10.633      -6.35885             0       9.72557      0.588947             0       5.39172      0.602319             0       7.55017             0             0      0.193945   1.83588e-15       0.15676        102506        103237        246515   3.36367e-15
     0.021021       288.491       288.697     0.0600048       10.2521      -6.38488             0       9.58003      0.585433             0       5.01811      0.480079             0       7.50814             0             0      0.192985   1.83449e-15      0.160937        102507        103237        246342   3.36112e-15
    0.0215215       288.507         288.7     0.0585407       9.75233      -6.46833             0        9.4399      0.579118             0       4.90618      0.350239             0       7.39266             0             0      0.191965   1.83515e-15      0.165369        102508        103238        246181   3.36234e-15
     0.022022       288.523       288.703     0.0570585       9.24641      -6.55327             0       9.29991      0.572712             0       4.80341      0.221045             0       7.27431             0             0      0.190961   1.83593e-15      0.169736        102509        103238        246021   3.36377e-15
    0.0225225       288.536       288.707      0.055183       8.60679      -6.67051             0       9.16304      0.564321             0       4.89967      0.105879             0       7.09366             0             0      0.190286   1.83924e-15      0.172669        102510        103238        245873   3.36984e-15
     0.023023       288.549        288.71     0.0533232       7.96608      -6.78708             0        9.0263      0.555848             0        5.0036    -0.0080895             0       6.91051             0             0      0.189631   1.84257e-15      0.175519        102512        103238        245725   3.37592e-15
    0.0235235       288.553       288.714     0.0517905       7.30294      -6.88997             0        8.8923      0.545695             0       5.26639    -0.0972254             0        6.6754             0             0      0.189372   1.84608e-15      0.176645        102514        103239        245576   3.38237e-15
     0.024024       288.557       288.717     0.0502896       6.64147      -6.99047             0        8.7586      0.535455             0       5.53629     -0.185114             0       6.43808             0             0      0.189125   1.84942e-15      0.177716        102517        103239        245426   3.38848e-15
    0.0245245        288.57       288.721     0.0494167       6.01328      -7.04372             0       8.63091      0.523496             0       5.94738      -0.24827             0       6.15682             0             0      0.189128   1.84917e-15      0.177705        102520        103240        245264   3.38802e-15
     0.025025       288.584       288.724      0.048558       5.38739      -7.09372             0       8.50384      0.511465             0       6.36396     -0.310076             0       5.87371             0             0      0.189147    1.8485e-15      0.177624        102522        103240        245101   3.38679e-15
    0.0255255        288.63       288.728     0.0479684       4.80547      -7.08219             0       8.38833      0.498048             0       6.88517     -0.346213             0       5.55553             0             0      0.189475    1.8399e-15      0.176197        102526        103241        244911   3.37104e-15
     0.026026       288.678       288.732      0.047361       4.22831      -7.06675             0       8.27374      0.484587             0       7.40823      -0.38104             0       5.23635             0             0      0.189822   1.83083e-15      0.174685        102529        103241        244720   3.35442e-15
    0.0265265       288.748       288.738     0.0464306       3.73816      -6.97993             0       8.17571      0.470316             0       7.96488     -0.391958             0       4.89889             0             0      0.190526   1.81317e-15      0.171625        102533        103242        244508   3.32208e-15
     0.027027       288.818       288.743     0.0454656       3.25479       -6.8888             0       8.07874      0.456023             0       8.51939     -0.401754             0        4.5614             0             0      0.191243   1.79534e-15       0.16851        102537        103242        244295   3.28941e-15
    0.0275275       288.871       288.751     0.0438954       2.89011      -6.72189             0       8.00015      0.441347             0       9.03641       -0.3919             0       4.22356             0             0      0.192176    1.7744e-15      0.164454        102541        103243        244075   3.25103e-15
     0.028028       288.922       288.759     0.0423492       2.53275      -6.55123             0       7.92269      0.426688             0       9.54727     -0.381188             0       3.88654             0             0      0.193114   1.75357e-15      0.160373        102546        103243        243855   3.21287e-15
    0.0285285       288.949       288.768     0.0412081       2.29872      -6.31742             0        7.8643      0.412308             0       9.95431        -0.356             0       3.56328             0             0      0.194149   1.73472e-15      0.155875        102550        103243        243646   3.17833e-15
     0.029029       288.975       288.777     0.0401532        2.0724      -6.08111             0       7.80713      0.398026             0       10.3507     -0.330785             0       3.24162             0             0      0.195184   1.71615e-15      0.151372        102554        103244        243440   3.14431e-15
    0.0295295       288.982       288.785     0.0404975       1.97125      -5.80442             0       7.76978      0.385309             0       10.5742     -0.305149             0       2.94576             0             0      0.196236   1.70217e-15      0.146802        102558        103244        243273    3.1187e-15
      0.03003       288.989       288.792     0.0408699        1.8772      -5.52674             0        7.7336      0.372737             0       10.7848     -0.280463             0       2.65214             0             0      0.197286   1.68855e-15      0.142237        102561        103245        243111   3.09374e-15
    0.0305305        288.99       288.795     0.0416808       1.89443      -5.23349             0       7.71579      0.362435             0       10.7925     -0.270659             0       2.39372             0             0      0.198318   1.68049e-15      0.137749        102565        103245        243012   3.07898e-15
     0.031031       288.991       288.798      0.042454       1.91576      -4.94086             0       7.69886      0.352239             0         10.79     -0.261946             0       2.13802             0             0      0.199356   1.67265e-15      0.133236        102569        103246        242918   3.06462e-15
    0.0315315       288.992       288.798     0.0426571       1.99922      -4.65782             0       7.69526      0.343659             0       10.6321     -0.269735             0       1.92348             0             0      0.200482   1.66817e-15      0.128341        102572        103246        242896    3.0564e-15
     0.032032       288.993       288.798     0.0428158       2.08235      -4.37679             0       7.69204      0.335113             0       10.4707     -0.277994             0        1.7118             0             0      0.201619   1.66359e-15      0.123394        102575        103246        242879   3.04801e-15
    0.0325325       288.987       288.796     0.0423254       2.16057      -4.12521             0       7.69443      0.327055             0       10.2592     -0.293145             0       1.54181             0             0      0.202927   1.65773e-15       0.11771        102578        103247        242943   3.03726e-15
     0.033033       288.981       288.794     0.0417987       2.23559      -3.87604             0       7.69673      0.318987             0       10.0508     -0.308154             0       1.37433             0             0      0.204239   1.65131e-15      0.112003        102580        103247        243012    3.0255e-15
    0.0335335       288.969        288.79     0.0407578       2.26526      -3.66111             0       7.69789      0.310782             0       9.88693     -0.321167             0        1.2422             0             0      0.205624   1.63703e-15       0.10598        102583        103247        243153   2.99934e-15
     0.034034       288.958       288.786     0.0396847       2.29214      -3.44829             0       7.69878      0.302552             0        9.7284     -0.333752             0       1.11196             0             0      0.207023   1.62125e-15      0.099899        102585        103248        243298   2.97044e-15
    0.0345345       288.936       288.781     0.0381686       2.28075      -3.26436             0       7.69615      0.293987             0        9.6432     -0.340483             0       1.00749             0             0      0.208609   1.58496e-15     0.0930054        102587        103248        243496   2.90394e-15
     0.035035       288.914       288.776     0.0366367       2.26901      -3.08201             0       7.69338      0.285387             0       9.56145     -0.346742             0      0.904361             0             0      0.210225   1.54622e-15     0.0859795        102589        103248        243698   2.83295e-15
    0.0355355       288.877       288.769      0.034895       2.25255      -2.92074             0       7.68881      0.276323             0       9.52545     -0.346739             0      0.819122             0             0      0.212245   1.47494e-15     0.0771956        102591        103248        243943   2.70237e-15
     0.036036        288.84       288.761     0.0331775       2.23771      -2.76055             0       7.68431      0.267225             0        9.4901     -0.346374             0      0.734915             0             0      0.214289   1.40051e-15      0.068307        102592        103248        244190     2.566e-15
    0.0365365        288.79       288.753     0.0317732       2.24386      -2.61426             0       7.68064       0.25768             0       9.46305     -0.341343             0      0.664007             0             0      0.216644   1.28541e-15     0.0580681        102594        103249        244465   2.35511e-15
     0.037037       288.739       288.745     0.0304315       2.25181      -2.46864             0       7.67712       0.24811             0       9.43528     -0.336096             0      0.593952             0             0       0.21899   1.16797e-15     0.0478689        102596        103249        244740   2.13994e-15
    0.0375375       288.686       288.738     0.0298733       2.28237      -2.33146             0       7.67552      0.238221             0       9.39847     -0.328144             0      0.534582             0             0      0.221222   1.02135e-15     0.0381654        102597        103249        245035   1.87131e-15
     0.038038       288.635       288.731     0.0293748       2.31392      -2.19495             0       7.67404      0.228317             0       9.36107     -0.320065             0      0.475947             0             0      0.223403   8.75099e-16     0.0286817        102598        103249        245332   1.60334e-15
    0.0385385       288.596       288.725     0.0296034        2.3574      -2.06662             0       7.67408      0.218242             0       9.31644     -0.310446             0      0.426234             0             0       0.22497     7.333e-16     0.0218709        102600        103249        245643   1.34354e-15
     0.039039       288.559        288.72     0.0298555       2.40108      -1.93902             0       7.67417      0.208157             0       9.27183     -0.300723             0      0.377166             0             0      0.226484   5.93665e-16     0.0152872        102601        103249        245955    1.0877e-15
    0.0395395       288.537       288.717     0.0303845       2.44693      -1.81991             0       7.67495      0.197943             0       9.22742     -0.289768             0      0.335714             0             0      0.227381   4.79595e-16     0.0113888        102602        103249        246273   8.78707e-16
      0.04004       288.516       288.714     0.0309098       2.49257      -1.70148             0       7.67574      0.187721             0       9.18344     -0.278713             0      0.294821             0             0      0.228246   3.68248e-16    0.00762747        102603        103249        246592   6.74699e-16
    0.0405405       288.504       288.712     0.0313924        2.5358      -1.59092             0       7.67668      0.177388             0        9.1443     -0.266491             0      0.260366             0             0      0.228748   2.88211e-16    0.00544375        102604        103249        246913   5.28056e-16
     0.041041       288.493        288.71     0.0318595       2.57871      -1.48099             0       7.67761      0.167046             0       9.10569     -0.254182             0      0.226397             0             0      0.229228    2.1074e-16    0.00335454        102605        103249        247234   3.86116e-16
    0.0415415       288.488       288.709     0.0321529       2.61808      -1.37819             0       7.67849      0.156607             0        9.0729     -0.240893             0      0.197871             0             0      0.229466   1.62014e-16    0.00232339        102606        103249        247547   2.96839e-16
     0.042042       288.483       288.708     0.0324342       2.65706      -1.27596             0       7.67935      0.146161             0       9.04063     -0.227525             0      0.169771             0             0      0.229691   1.15058e-16    0.00134243        102607        103249        247858   2.10808e-16
    0.0425425       288.481       288.707     0.0325837       2.69186      -1.17999             0       7.68007      0.135639             0       9.01413     -0.213305             0      0.146331             0             0      0.229791   8.74203e-17    0.00090884        102608        103249        248152    1.6017e-16
     0.043043       288.479       288.707     0.0327261       2.72628       -1.0845             0       7.68079      0.125111             0         8.988     -0.199024             0       0.12327             0             0      0.229885   6.08218e-17   0.000497982        102609        103249        248445   1.11437e-16
    0.0435435       288.478       288.707     0.0327922       2.75667     -0.994178             0       7.68149       0.11452             0       8.96577      -0.18409             0      0.104239             0             0      0.229924   4.52706e-17   0.000328693        102609        103250        248719   8.29441e-17
     0.044044       288.477       288.707     0.0328543       2.78662     -0.904283             0       7.68209      0.103925             0       8.94404     -0.169103             0     0.0855529             0             0      0.229961    3.0328e-17   0.000168724        102610        103250        248990   5.55666e-17
    0.0445445       288.477       288.707     0.0328756         2.812     -0.818834             0       7.68165     0.0932839             0       8.92752     -0.153565             0     0.0704471             0             0      0.229976   2.16938e-17   0.000105339        102610        103250        249235   3.97471e-17
     0.045045       288.477       288.707     0.0328977       2.83723     -0.733682             0       7.68045     0.0826418             0       8.90744     -0.137939             0     0.0556562             0             0      0.229989   1.34683e-17    4.6023e-05        102611        103250        249477   2.46764e-17
    0.0455455       288.478       288.707     0.0329288       2.86097     -0.651531             0        7.6716     0.0719856             0       8.85134     -0.121425             0     0.0440499             0             0      0.229994   9.37523e-18   2.78557e-05        102611        103250        249684   1.71772e-17