#           y             T         TMean   TPrime2Mean           U_x           U_y           U_z       UMean_x       UMean_y       UMean_z UPrime2Mea... UPrime2Mea... UPrime2Mea... UPrime2Mea... UPrime2Mea... UPrime2Mea...            O2           H2O          C3H8             p         pMean   pPrime2Mean           CO2
         0.03       402.208       289.006       31.3746       13.8727       11.2966             0       4.10732       1.17118             0       19.7806     -0.798887             0       51.5412             0             0       0.12946    0.00230945      0.413425        105232        103131        321278    0.00423134
    0.0301702       399.935       288.996       30.0301       13.8326       11.3679             0       4.07722       1.20844             0       19.8671     -0.771092             0       51.4741             0             0      0.130014     0.0021982      0.412157        105235        103131        320735    0.00402751
    0.0303403       397.661       288.986       28.6856       13.7925       11.4392             0       4.04712        1.2457             0       19.9536     -0.743298             0        51.407             0             0      0.130568    0.00208695       0.41089        105238        103132        320192    0.00382368
    0.0305105       395.388       288.976       27.3411       13.7524       11.5105             0       4.01701       1.28296             0       20.0402     -0.715504             0       51.3398             0             0      0.131122     0.0019757      0.409622        105241        103132        319649    0.00361985
    0.0306807       393.114       288.966       25.9966       13.7124       11.5817             0       3.98691       1.32022             0       20.1267     -0.687709             0       51.2727             0             0      0.131676    0.00186445      0.408355        105244        103132        319106    0.00341602
    0.0308509       390.841       288.956       24.6521       13.6723        11.653             0        3.9568       1.35748             0       20.2132     -0.659915             0       51.2056             0             0       0.13223     0.0017532      0.407088        105247        103132        318563    0.00321219
     0.031021       388.535       288.946       23.3389       13.6358       11.7261             0       3.92881       1.39516             0        20.319     -0.627613             0        51.126             0             0      0.132801    0.00164379      0.405726        105250        103133        318018    0.00301174
    0.0311912       386.004       288.936       22.2478       13.6253       11.8112             0       3.91578       1.43578             0       20.5617     -0.563327             0       50.9581             0             0      0.133496    0.00154749      0.403692        105252        103133        317456    0.00283529
    0.0313614       383.473       288.927       21.1567       13.6147       11.8964             0       3.90276       1.47641             0       20.8043      -0.49904             0       50.7902             0             0      0.134191    0.00145118      0.401659        105254        103134        316894    0.00265884
    0.0315315       380.942       288.918       20.0655       13.6041       11.9816             0       3.88974       1.51704             0        21.047     -0.434754             0       50.6223             0             0      0.134886    0.00135488      0.399626        105256        103134        316333    0.00248239
    0.0317017        378.41       288.908       18.9744       13.5936       12.0668             0       3.87671       1.55767             0       21.2897     -0.370468             0       50.4544             0             0       0.13558    0.00125858      0.397593        105258        103135        315771    0.00230594
    0.0318719       375.879       288.899       17.8833        13.583        12.152             0       3.86369       1.59829             0       21.5323     -0.306181             0       50.2865             0             0      0.136275    0.00116227       0.39556        105259        103135        315210     0.0021295
     0.032042       373.423       288.889       16.8695        13.577       12.2454             0       3.85393       1.63909             0       21.8192     -0.228494             0       50.0973             0             0      0.136946    0.00107323      0.393557        105262        103135        314655    0.00196636
    0.0322122       371.196       288.881       16.0916        13.585       12.3638             0       3.85412       1.68039             0       22.2408     -0.109966             0       49.8434             0             0      0.137543    0.00100633      0.391647        105264        103136        314123    0.00184378
    0.0323824        368.97       288.873       15.3137        13.593       12.4822             0        3.8543        1.7217             0       22.6624    0.00856268             0       49.5894             0             0       0.13814   0.000939421      0.389737        105267        103137        313590    0.00172119
    0.0325526       366.743       288.865       14.5358        13.601       12.6006             0       3.85449         1.763             0       23.0841      0.127091             0       49.3354             0             0      0.138738   0.000872517      0.387827        105269        103137        313058    0.00159861
    0.0327227       364.516       288.857       13.7578       13.6089       12.7191             0       3.85467       1.80431             0       23.5057       0.24562             0       49.0815             0             0      0.139335   0.000805612      0.385917        105272        103138        312525    0.00147603
    0.0328929        362.29       288.849       12.9799       13.6169       12.8375             0       3.85486       1.84561             0       23.9273      0.364148             0       48.8275             0             0      0.139932   0.000738708      0.384007        105275        103138        311993    0.00135345
    0.0330631       360.102       288.841       12.2805       13.6269       12.9716             0       3.85767       1.88641             0       24.4423      0.501209             0       48.5478             0             0      0.140431   0.000678662      0.382455        105278        103139        311476    0.00124344
    0.0332332       357.979       288.834       11.7146       13.6404       13.1326             0       3.86495       1.92635             0       25.1159      0.669748             0       48.2244             0             0      0.140762   0.000630266      0.381511        105283        103140        310988    0.00115476
    0.0334034       355.856       288.827       11.1486       13.6538       13.2935             0       3.87222       1.96629             0       25.7894      0.838286             0       47.9011             0             0      0.141094   0.000581869      0.380566        105288        103140        310499    0.00106609
    0.0335736       353.733        288.82       10.5827       13.6673       13.4544             0        3.8795       2.00622             0        26.463       1.00682             0       47.5777             0             0      0.141425   0.000533472      0.379622        105293        103141        310010   0.000977421
    0.0337437       351.611       288.812       10.0167       13.6807       13.6153             0       3.88677       2.04616             0       27.1365       1.17536             0       47.2543             0             0      0.141757   0.000485075      0.378678        105298        103142        309522   0.000888749
    0.0339139       349.488       288.805       9.45079       13.6942       13.7762             0       3.89404        2.0861             0       27.8101        1.3439             0        46.931             0             0      0.142088   0.000436679      0.377733        105303        103142        309033   0.000800077
    0.0340841       347.508       288.798       8.98165       13.6967        13.944             0        3.9036       2.12427             0       28.6054       1.53117             0       46.5754             0             0      0.142319   0.000397069      0.377136        105309        103143        308571   0.000727505
    0.0342543       345.673       288.792        8.6116        13.688       14.1187             0       3.91549       2.16064             0       29.5253       1.73763             0       46.1869             0             0      0.142447   0.000366457      0.376895        105314        103144        308137   0.000671417
    0.0344244       343.839       288.786       8.24156       13.6794       14.2935             0       3.92737         2.197             0       30.4451       1.94408             0       45.7983             0             0      0.142574   0.000335844      0.376653        105319        103145        307703    0.00061533
    0.0345946       342.005        288.78       7.87152       13.6707       14.4682             0       3.93926       2.23337             0        31.365       2.15053             0       45.4098             0             0      0.142702   0.000305232      0.376411        105324        103146        307268   0.000559242
    0.0347648        340.17       288.774       7.50147       13.6621        14.643             0       3.95115       2.26973             0       32.2849       2.35699             0       45.0212             0             0       0.14283   0.000274619       0.37617        105329        103146        306834   0.000503154
    0.0349349       338.336       288.768       7.13143       13.6534       14.8177             0       3.96304       2.30609             0       33.2048       2.56344             0       44.6327             0             0      0.142958   0.000244007      0.375928        105335        103147        306400   0.000447066
    0.0351051       336.706       288.763       6.85164       13.6011       14.9981             0       3.97819       2.33926             0       34.2008          2.77             0        44.206             0             0      0.143066   0.000222099      0.375685        105339        103148        305997   0.000406927
    0.0352753       335.204       288.759       6.62772       13.5218       15.1819             0       3.99536       2.37044             0       35.2438       2.97663             0       43.7558             0             0      0.143161   0.000205581      0.375441        105342        103149        305614   0.000376662
    0.0354454       333.701       288.754        6.4038       13.4424       15.3658             0       4.01253       2.40163             0       36.2868       3.18326             0       43.3056             0             0      0.143256   0.000189062      0.375197        105345        103150        305230   0.000346396
    0.0356156       332.199        288.75       6.17988       13.3631       15.5496             0       4.02969       2.43281             0       37.3299       3.38989             0       42.8553             0             0      0.143351   0.000172543      0.374953        105348        103151        304847   0.000316131
    0.0357858       330.696       288.745       5.95596       13.2837       15.7335             0       4.04686         2.464             0       38.3729       3.59651             0       42.4051             0             0      0.143446   0.000156024      0.374708        105352        103152        304464   0.000285866
     0.035956       329.194       288.741       5.73204       13.2044       15.9173             0       4.06403       2.49519             0        39.416       3.80314             0       41.9548             0             0      0.143541   0.000139506      0.374464        105355        103153        304080     0.0002556
    0.0361261        327.92       288.737       5.57701       13.0612       16.0772             0       4.08515       2.52167             0       40.4562       3.97229             0       41.4711             0             0      0.143738   0.000127338      0.373735        105355        103154        303748   0.000233307
    0.0362963       326.726       288.734       5.44604       12.8956       16.2288             0       4.10764       2.54651             0       41.4955       4.12835             0       40.9757             0             0       0.14397   0.000116689      0.372837        105355        103155        303434   0.000213797
    0.0364665       325.533       288.731       5.31507       12.7301       16.3804             0       4.13014       2.57135             0       42.5347        4.2844             0       40.4803             0             0      0.144201   0.000106041      0.371939        105355        103156        303120   0.000194287
    0.0366366       324.339       288.728        5.1841       12.5645        16.532             0       4.15264       2.59619             0        43.574       4.44046             0       39.9848             0             0      0.144433   9.53923e-05       0.37104        105355        103157        302806   0.000174777
    0.0368068       323.145       288.725       5.05313        12.399       16.6836             0       4.17513       2.62103             0       44.6133       4.59652             0       39.4894             0             0      0.144665   8.47439e-05      0.370142        105354        103158        302492   0.000155267
     0.036977       321.951       288.722       4.92216       12.2334       16.8351             0       4.19763       2.64588             0       45.6525       4.75258             0        38.994             0             0      0.144897   7.40954e-05      0.369244        105354        103159        302178   0.000135757
    0.0371471       321.044        288.72        4.8359       12.0643       16.8896             0       4.22489       2.66331             0       46.5913       4.86803             0         38.47             0             0      0.145379   6.78522e-05      0.367213        105353        103160        301928   0.000124318
    0.0373173        320.18       288.717       4.75664       11.8947        16.929             0       4.25288       2.67958             0       47.5144       4.97713             0       37.9415             0             0        0.1459   6.22984e-05      0.365005        105351        103161        301687   0.000114142
    0.0374875       319.317       288.715       4.67737       11.7251       16.9683             0       4.28088       2.69586             0       48.4375       5.08622             0        37.413             0             0      0.146421   5.67445e-05      0.362797        105350        103163        301447   0.000103967
    0.0376577       318.454       288.713       4.59811       11.5555       17.0076             0       4.30888       2.71213             0       49.3606       5.19532             0       36.8845             0             0      0.146942   5.11907e-05      0.360589        105348        103164        301207   9.37909e-05
    0.0378278       317.591       288.711       4.51885       11.3859       17.0469             0       4.33688       2.72841             0       50.2837       5.30442             0        36.356             0             0      0.147463   4.56368e-05      0.358381        105347        103165        300966   8.36152e-05
     0.037998       316.728       288.708       4.43958       11.2163       17.0862             0       4.36488       2.74468             0       51.2068       5.41351             0       35.8275             0             0      0.147984    4.0083e-05      0.356173        105345        103166        300726   7.34395e-05
    0.0381682       316.064       288.706       4.38406       11.1427       16.9649             0       4.39907        2.7502             0       51.9163       5.53751             0       35.2669             0             0      0.148823   3.65034e-05      0.352559        105344        103167        300562    6.6881e-05
    0.0383383       315.402       288.704       4.32882       11.0703       16.8416             0       4.43334       2.75559             0       52.6233       5.66168             0       34.7059             0             0      0.149667   3.29473e-05      0.348929        105344        103169        300398   6.03655e-05
    0.0385085        314.74       288.702       4.27358       10.9979       16.7182             0       4.46761       2.76099             0       53.3303       5.78585             0       34.1449             0             0       0.15051   2.93912e-05      0.345298        105343        103170        300235   5.38501e-05
    0.0386787       314.079         288.7       4.21834       10.9254       16.5949             0       4.50188       2.76638             0       54.0373       5.91001             0       33.5839             0             0      0.151354   2.58351e-05      0.341667        105342        103171        300071   4.73347e-05
    0.0388488       313.417       288.698       4.16309        10.853       16.4716             0       4.53615       2.77177             0       54.7443       6.03418             0       33.0229             0             0      0.152197    2.2279e-05      0.338037        105341        103172        299908   4.08192e-05
     0.039019       312.792       288.695       4.11048       10.7902        16.334             0       4.57092        2.7759             0       55.4248       6.16463             0       32.4577             0             0      0.153037   1.88988e-05       0.33442        105340        103173        299753   3.46261e-05
    0.0391892        312.46       288.693       4.07878       10.8039       16.0825             0       4.60971       2.76996             0       55.8944       6.34496             0       31.8594             0             0      0.153849   1.69169e-05      0.330914        105340        103175        299660   3.09949e-05
    0.0393594       312.128       288.691       4.04708       10.8177        15.831             0        4.6485       2.76402             0       56.3641        6.5253             0       31.2611             0             0       0.15466    1.4935e-05      0.327408        105339        103176        299568   2.73636e-05
    0.0395295       311.795       288.688       4.01538       10.8314       15.5795             0       4.68728       2.75808             0       56.8338       6.70563             0       30.6628             0             0      0.155471   1.29531e-05      0.323902        105338        103177        299476   2.37324e-05
    0.0396997       311.463       288.686       3.98368       10.8452        15.328             0       4.72607       2.75214             0       57.3035       6.88596             0       30.0644             0             0      0.156282   1.09711e-05      0.320396        105338        103179        299384   2.01012e-05
    0.0398699       311.131       288.684       3.95198       10.8589       15.0765             0       4.76486        2.7462             0       57.7731        7.0663             0       29.4661             0             0      0.157093   8.98922e-06       0.31689        105337        103180        299292   1.64699e-05
      0.04004       310.878       288.681       3.92486        10.872       14.8155             0       4.80406       2.73816             0       58.1966       7.25304             0       28.8604             0             0      0.157807   7.29316e-06      0.313804        105336        103181        299216   1.33624e-05
    0.0402102       310.885       288.679       3.91262       10.8829       14.5233             0        4.8446        2.7233             0       58.4698       7.46059             0       28.2305             0             0      0.158205   6.52613e-06      0.312081        105335        103182        299195   1.19571e-05
    0.0403804       310.892       288.676       3.90038       10.8938       14.2311             0       4.88514       2.70845             0        58.743       7.66814             0       27.6007             0             0      0.158603    5.7591e-06      0.310357        105333        103184        299174   1.05517e-05
    0.0405506       310.898       288.673       3.88814       10.9048       13.9389             0       4.92567       2.69359             0       59.0163       7.87569             0       26.9708             0             0      0.159002   4.99207e-06      0.308634        105332        103185        299153    9.1464e-06
    0.0407207       310.905        288.67       3.87591       10.9157       13.6467             0       4.96621       2.67874             0       59.2895       8.08324             0        26.341             0             0        0.1594   4.22504e-06      0.306911        105330        103186        299131   7.74106e-06
    0.0408909       310.912       288.668       3.86367       10.9266       13.3545             0       5.00675       2.66388             0       59.5627       8.29079             0       25.7111             0             0      0.159798   3.45801e-06      0.305188        105329        103188        299110   6.33572e-06
    0.0410611       310.981       288.664       3.84252       10.9378       13.0602             0       5.04701       2.64699             0       59.7881       8.48169             0       25.0773             0             0      0.160131   2.87376e-06      0.303746        105327        103189        299113   5.26526e-06
    0.0412312       311.162        288.66       3.80546       10.9494       12.7622             0       5.08679       2.62646             0       59.9279       8.64285             0       24.4363             0             0      0.160347    2.6161e-06      0.302808        105324        103190        299161   4.79318e-06
    0.0414014       311.344       288.656        3.7684        10.961       12.4642             0       5.12656       2.60594             0       60.0676       8.80401             0       23.7953             0             0      0.160564   2.35844e-06       0.30187        105321        103192        299209    4.3211e-06
    0.0415716       311.525       288.652       3.73134       10.9726       12.1662             0       5.16634       2.58541             0       60.2074       8.96516             0       23.1543             0             0       0.16078   2.10078e-06      0.300931        105318        103193        299256   3.84903e-06
    0.0417417       311.706       288.648       3.69428       10.9842       11.8682             0       5.20611       2.56488             0       60.3472       9.12632             0       22.5134             0             0      0.160996   1.84313e-06      0.299993        105315        103194        299304   3.37695e-06
    0.0419119       311.887       288.644       3.65722       10.9958       11.5702             0       5.24589       2.54435             0        60.487       9.28748             0       21.8724             0             0      0.161213   1.58547e-06      0.299055        105312        103196        299351   2.90488e-06
    0.0420821       312.042       288.638       3.58713        11.057       11.2707             0       5.28274       2.52193             0       60.5934       9.39503             0       21.2365             0             0      0.161506   1.40603e-06       0.29778        105308        103197        299425   2.57611e-06
    0.0422523       312.169       288.631       3.48158       11.1714       10.9695             0       5.31646       2.49747             0        60.664       9.44507             0       20.6062             0             0      0.161883   1.31054e-06      0.296144        105304        103198        299526   2.40115e-06
    0.0424224       312.296       288.624       3.37604       11.2858       10.6683             0       5.35018       2.47301             0       60.7347       9.49511             0       19.9759             0             0      0.162259   1.21504e-06      0.294507        105300        103200        299627   2.22619e-06
    0.0425926       312.422       288.617       3.27049       11.4002       10.3671             0        5.3839       2.44855             0       60.8053       9.54514             0       19.3455             0             0      0.162636   1.11955e-06      0.292871        105295        103201        299729   2.05122e-06
    0.0427628       312.549        288.61       3.16495       11.5147       10.0659             0       5.41762       2.42409             0        60.876       9.59518             0       18.7152             0             0      0.163012   1.02406e-06      0.291235        105291        103202        299830   1.87626e-06
    0.0429329       312.676       288.603        3.0594       11.6291       9.76473             0       5.45134       2.39963             0       60.9466       9.64521             0       18.0848             0             0      0.163388   9.28562e-07      0.289599        105287        103204        299931    1.7013e-06
    0.0431031       312.618       288.594       2.91862       11.8193       9.45928             0       5.47756       2.37246             0       60.9434       9.61891             0       17.4608             0             0      0.163965   8.87258e-07      0.287089        105283        103205        300062   1.62562e-06
    0.0432733        312.44       288.584       2.75493       12.0588       9.15104             0       5.49891       2.34351             0       60.8922       9.54295             0       16.8407             0             0      0.164673   8.81205e-07      0.284011        105280        103206        300212   1.61453e-06
    0.0434434       312.263       288.574       2.59124       12.2984       8.84281             0       5.52025       2.31457             0        60.841       9.46699             0       16.2207             0             0      0.165381   8.75152e-07      0.280933        105276        103208        300362   1.60344e-06
    0.0436136       312.085       288.565       2.42754       12.5379       8.53458             0        5.5416       2.28562             0       60.7898       9.39103             0       15.6007             0             0      0.166089   8.69099e-07      0.277855        105273        103209        300512   1.59235e-06
    0.0437838       311.908       288.555       2.26385       12.7774       8.22635             0       5.56294       2.25668             0       60.7385       9.31507             0       14.9807             0             0      0.166796   8.63045e-07      0.274777        105270        103210        300661   1.58126e-06
     0.043954        311.73       288.545       2.10016        13.017       7.91812             0       5.58428       2.22773             0       60.6873       9.23911             0       14.3607             0             0      0.167504   8.56992e-07      0.271699        105267        103212        300811   1.57017e-06
    0.0441241       311.122       288.534       1.93134       13.2403       7.60565             0       5.59584       2.19256             0       60.4399       9.09023             0       13.7522             0             0      0.168547   8.53333e-07      0.267164        105265        103213        301000   1.56346e-06
    0.0442943       310.355       288.522       1.76062       13.4576       7.29162             0       5.60377       2.15508             0       60.1198        8.9143             0        13.148             0             0      0.169714   8.50561e-07      0.262088        105265        103214        301202   1.55839e-06
    0.0444645       309.587        288.51       1.58991        13.675       6.97759             0       5.61169       2.11759             0       59.7997       8.73836             0       12.5437             0             0      0.170881   8.47789e-07      0.257013        105264        103215        301405   1.55331e-06
    0.0446346        308.82       288.498       1.41919       13.8923       6.66355             0       5.61962       2.08011             0       59.4795       8.56243             0       11.9395             0             0      0.172048   8.45018e-07      0.251937        105264        103217        301608   1.54823e-06
    0.0448048       308.052       288.486       1.24847       14.1096       6.34952             0       5.62754       2.04263             0       59.1594        8.3865             0       11.3353             0             0      0.173215   8.42246e-07      0.246861        105263        103218        301810   1.54315e-06
     0.044975       307.285       288.474       1.07775       14.3269       6.03548             0       5.63547       2.00514             0       58.8392       8.21057             0       10.7311             0             0      0.174382   8.39474e-07      0.241786        105262        103219        302013   1.53807e-06
    0.0451451       305.945       288.463       0.95782       14.3586       5.77305             0       5.63326       1.95657             0       58.2555       7.96592             0        10.162             0             0      0.176561   8.00932e-07      0.232315        105265        103220        302242   1.46746e-06
    0.0453153       304.507       288.451      0.846644       14.3583       5.51951             0        5.6293       1.90608             0       57.6263       7.70942             0       9.59905             0             0      0.178914   7.56222e-07      0.222085        105267        103221        302475   1.38554e-06
    0.0454855       303.068       288.439      0.735468       14.3579       5.26597             0       5.62534        1.8556             0       56.9971       7.45291             0       9.03608             0             0      0.181266   7.11513e-07      0.211856        105270        103223        302709   1.30362e-06