#           y             T         TMean   TPrime2Mean           U_x           U_y           U_z       UMean_x       UMean_y       UMean_z UPrime2Mea... UPrime2Mea... UPrime2Mea... UPrime2Mea... UPrime2Mea... UPrime2Mea...            O2           H2O          C3H8             p         pMean   pPrime2Mean           CO2
         0.04       289.202       288.367      0.119381      0.268245       10.5049             0      -4.65324      -7.18209             0       21.3698       7.58351             0       36.0346             0             0      0.206515   1.75786e-06      0.102092        106055        103084        311419   3.22073e-06
     0.039975       289.201       288.367      0.119547      0.271314       10.5453             0      -4.64894      -7.18926             0       21.3874       7.49485             0       36.1972             0             0      0.206512   1.85714e-06      0.102102        106056        103084        311439   3.40263e-06
    0.0399499       289.199       288.366      0.119713      0.274383       10.5857             0      -4.64463      -7.19643             0       21.4049       7.40619             0       36.3599             0             0      0.206509   1.95643e-06      0.102113        106056        103084        311460   3.58454e-06
    0.0399249       289.198       288.366      0.119878      0.277453       10.6261             0      -4.64033       -7.2036             0       21.4225       7.31754             0       36.5226             0             0      0.206507   2.05571e-06      0.102123        106056        103084        311481   3.76645e-06
    0.0398999       289.197       288.365      0.120044      0.280522       10.6665             0      -4.63603      -7.21077             0       21.4401       7.22888             0       36.6852             0             0      0.206504     2.155e-06      0.102134        106056        103083        311501   3.94835e-06
    0.0398749       289.195       288.365      0.120209      0.283591       10.7069             0      -4.63172      -7.21794             0       21.4577       7.14022             0       36.8479             0             0      0.206502   2.25428e-06      0.102144        106056        103083        311522   4.13026e-06
    0.0398498       289.194       288.364      0.120375       0.28666       10.7473             0      -4.62742      -7.22512             0       21.4753       7.05157             0       37.0105             0             0      0.206499   2.35356e-06      0.102155        106056        103083        311543   4.31217e-06
    0.0398248       289.193       288.364      0.120541      0.289729       10.7877             0      -4.62312      -7.23229             0       21.4929       6.96291             0       37.1732             0             0      0.206496   2.45285e-06      0.102165        106056        103083        311563   4.49407e-06
    0.0397998       289.191       288.364      0.120706      0.292799       10.8281             0      -4.61881      -7.23946             0       21.5105       6.87425             0       37.3358             0             0      0.206494   2.55213e-06      0.102176        106056        103083        311584   4.67598e-06
    0.0397748        289.19       288.363      0.120872      0.295868       10.8685             0      -4.61451      -7.24663             0       21.5281        6.7856             0       37.4985             0             0      0.206491   2.65142e-06      0.102186        106056        103083        311605   4.85789e-06
    0.0397497       289.189       288.363      0.121037      0.298937       10.9089             0      -4.61021       -7.2538             0       21.5457       6.69694             0       37.6612             0             0      0.206488    2.7507e-06      0.102197        106056        103082        311625    5.0398e-06
    0.0397247       289.187       288.362      0.121203      0.302006       10.9493             0       -4.6059      -7.26097             0       21.5633       6.60828             0       37.8238             0             0      0.206486   2.84998e-06      0.102207        106056        103082        311646    5.2217e-06
    0.0396997       289.186       288.362      0.121369      0.305076       10.9897             0       -4.6016      -7.26814             0       21.5809       6.51963             0       37.9865             0             0      0.206483   2.94927e-06      0.102218        106056        103082        311666   5.40361e-06
    0.0396747       289.185       288.361      0.121534      0.308145       11.0301             0       -4.5973      -7.27532             0       21.5985       6.43097             0       38.1491             0             0       0.20648   3.04855e-06      0.102228        106057        103082        311687   5.58552e-06
    0.0396496       289.183       288.361        0.1217      0.311214       11.0705             0      -4.59299      -7.28249             0       21.6161       6.34231             0       38.3118             0             0      0.206478   3.14784e-06      0.102239        106057        103082        311708   5.76742e-06
    0.0396246       289.182       288.361      0.121865      0.314283       11.1109             0      -4.58869      -7.28966             0       21.6337       6.25366             0       38.4745             0             0      0.206475   3.24712e-06      0.102249        106057        103081        311728   5.94933e-06
    0.0395996       289.181        288.36      0.122031      0.317352       11.1513             0      -4.58439      -7.29683             0       21.6513         6.165             0       38.6371             0             0      0.206472   3.34641e-06       0.10226        106057        103081        311749   6.13124e-06
    0.0395746       289.179        288.36      0.122197      0.320422       11.1917             0      -4.58008        -7.304             0       21.6689       6.07634             0       38.7998             0             0       0.20647   3.44569e-06       0.10227        106057        103081        311770   6.31315e-06
    0.0395495       289.178       288.359      0.122362      0.323491       11.2321             0      -4.57578      -7.31117             0       21.6865       5.98769             0       38.9624             0             0      0.206467   3.54497e-06      0.102281        106057        103081        311790   6.49505e-06
    0.0395245       289.177       288.359      0.122528       0.32656       11.2725             0      -4.57148      -7.31834             0        21.704       5.89903             0       39.1251             0             0      0.206465   3.64426e-06      0.102291        106057        103081        311811   6.67696e-06
    0.0394995       289.175       288.358      0.122693      0.329629       11.3129             0      -4.56717      -7.32551             0       21.7216       5.81037             0       39.2877             0             0      0.206462   3.74354e-06      0.102302        106057        103081        311832   6.85887e-06
    0.0394745       289.174       288.358      0.122859      0.332699       11.3533             0      -4.56287      -7.33269             0       21.7392       5.72171             0       39.4504             0             0      0.206459   3.84283e-06      0.102312        106057        103080        311852   7.04077e-06
    0.0394494       289.173       288.358      0.123025      0.335768       11.3937             0      -4.55856      -7.33986             0       21.7568       5.63306             0       39.6131             0             0      0.206457   3.94211e-06      0.102323        106057        103080        311873   7.22268e-06
    0.0394244       289.172       288.357       0.12319      0.338837       11.4341             0      -4.55426      -7.34703             0       21.7744        5.5444             0       39.7757             0             0      0.206454   4.04139e-06      0.102333        106057        103080        311893   7.40459e-06
    0.0393994        289.17       288.357      0.123356      0.341906       11.4745             0      -4.54996       -7.3542             0        21.792       5.45574             0       39.9384             0             0      0.206451   4.14068e-06      0.102344        106058        103080        311914   7.58649e-06
    0.0393744       289.169       288.356      0.123521      0.344975       11.5149             0      -4.54565      -7.36137             0       21.8096       5.36709             0        40.101             0             0      0.206449   4.23996e-06      0.102354        106058        103080        311935    7.7684e-06
    0.0393493       289.168       288.356      0.123687      0.348045       11.5553             0      -4.54135      -7.36854             0       21.8272       5.27843             0       40.2637             0             0      0.206446   4.33925e-06      0.102365        106058        103079        311955   7.95031e-06
    0.0393243       289.166       288.355      0.123852      0.351114       11.5957             0      -4.53705      -7.37571             0       21.8448       5.18977             0       40.4264             0             0      0.206443   4.43853e-06      0.102375        106058        103079        311976   8.13222e-06
    0.0392993       289.165       288.355      0.124018      0.354183       11.6361             0      -4.53274      -7.38289             0       21.8624       5.10112             0        40.589             0             0      0.206441   4.53781e-06      0.102386        106058        103079        311997   8.31412e-06
    0.0392743       289.164       288.355      0.124184      0.357252       11.6765             0      -4.52844      -7.39006             0         21.88       5.01246             0       40.7517             0             0      0.206438    4.6371e-06      0.102396        106058        103079        312017   8.49603e-06
    0.0392492       289.162       288.354      0.124349      0.360322       11.7169             0      -4.52414      -7.39723             0       21.8976        4.9238             0       40.9143             0             0      0.206435   4.73638e-06      0.102407        106058        103079        312038   8.67794e-06
    0.0392242       289.161       288.354      0.124515      0.363391       11.7573             0      -4.51983       -7.4044             0       21.9152       4.83515             0        41.077             0             0      0.206433   4.83567e-06      0.102417        106058        103079        312059   8.85984e-06
    0.0391992        289.16       288.353       0.12468       0.36646       11.7977             0      -4.51553      -7.41157             0       21.9328       4.74649             0       41.2396             0             0       0.20643   4.93495e-06      0.102428        106058        103078        312079   9.04175e-06
    0.0391742       289.158       288.353      0.124846      0.369529       11.8381             0      -4.51123      -7.41874             0       21.9504       4.65783             0       41.4023             0             0      0.206428   5.03424e-06      0.102438        106058        103078        312100   9.22366e-06
    0.0391491       289.157       288.352      0.125012      0.372599       11.8784             0      -4.50692      -7.42591             0        21.968       4.56918             0        41.565             0             0      0.206425   5.13352e-06      0.102449        106058        103078        312120   9.40557e-06
    0.0391241       289.156       288.352      0.125177      0.375668       11.9188             0      -4.50262      -7.43308             0       21.9856       4.48052             0       41.7276             0             0      0.206422    5.2328e-06      0.102459        106058        103078        312141   9.58747e-06
    0.0390991       289.154       288.352      0.125343      0.378737       11.9592             0      -4.49832      -7.44026             0       22.0032       4.39186             0       41.8903             0             0       0.20642   5.33209e-06       0.10247        106059        103078        312162   9.76938e-06
    0.0390741       289.153       288.351      0.125508      0.381806       11.9996             0      -4.49401      -7.44743             0       22.0207       4.30321             0       42.0529             0             0      0.206417   5.43137e-06       0.10248        106059        103077        312182   9.95129e-06
     0.039049       289.152       288.351      0.125674      0.384875         12.04             0      -4.48971       -7.4546             0       22.0383       4.21455             0       42.2156             0             0      0.206414   5.53066e-06      0.102491        106059        103077        312203   1.01332e-05
     0.039024        289.15        288.35       0.12584      0.387945       12.0804             0      -4.48541      -7.46177             0       22.0559       4.12589             0       42.3783             0             0      0.206412   5.62994e-06      0.102501        106059        103077        312224   1.03151e-05
     0.038999       289.149        288.35      0.126002      0.391896       12.1207             0      -4.48086      -7.46881             0       22.0735       4.03791             0       42.5415             0             0      0.206413   5.73382e-06      0.102497        106059        103077        312244   1.05054e-05
     0.038974       289.155       288.349      0.126095      0.417008       12.1573             0      -4.47056      -7.47267             0        22.089       3.96623             0        42.718             0             0      0.206497   5.94806e-06      0.102127        106059        103077        312270    1.0898e-05
    0.0389489       289.161       288.349      0.126187       0.44212        12.194             0      -4.46026      -7.47654             0       22.1046       3.89456             0       42.8945             0             0      0.206581   6.16229e-06      0.101758        106058        103077        312295   1.12905e-05
    0.0389239       289.167       288.348       0.12628      0.467232       12.2307             0      -4.44996       -7.4804             0       22.1201       3.82288             0        43.071             0             0      0.206666   6.37653e-06      0.101389        106058        103076        312320    1.1683e-05
    0.0388989       289.173       288.348      0.126372      0.492344       12.2673             0      -4.43966      -7.48427             0       22.1357        3.7512             0       43.2475             0             0       0.20675   6.59076e-06      0.101019        106058        103076        312345   1.20755e-05
    0.0388739       289.179       288.348      0.126465      0.517457        12.304             0      -4.42936      -7.48813             0       22.1513       3.67952             0       43.4241             0             0      0.206835     6.805e-06       0.10065        106058        103076        312370    1.2468e-05
    0.0388488       289.185       288.347      0.126557      0.542569       12.3406             0      -4.41905        -7.492             0       22.1668       3.60784             0       43.6006             0             0      0.206919   7.01924e-06      0.100281        106058        103076        312396   1.28605e-05
    0.0388238       289.191       288.347       0.12665      0.567681       12.3773             0      -4.40875      -7.49586             0       22.1824       3.53616             0       43.7771             0             0      0.207004   7.23347e-06     0.0999113        106057        103076        312421   1.32531e-05
    0.0387988       289.197       288.346      0.126742      0.592793       12.4139             0      -4.39845      -7.49973             0        22.198       3.46448             0       43.9536             0             0      0.207088   7.44771e-06     0.0995419        106057        103076        312446   1.36456e-05
    0.0387738       289.203       288.346      0.126835      0.617905       12.4506             0      -4.38815      -7.50359             0       22.2135        3.3928             0       44.1301             0             0      0.207173   7.66194e-06     0.0991726        106057        103075        312471   1.40381e-05
    0.0387487       289.209       288.345      0.126927      0.643018       12.4872             0      -4.37785      -7.50746             0       22.2291       3.32112             0       44.3067             0             0      0.207257   7.87618e-06     0.0988032        106057        103075        312496   1.44306e-05
    0.0387237       289.215       288.345       0.12702       0.66813       12.5239             0      -4.36755      -7.51132             0       22.2447       3.24944             0       44.4832             0             0      0.207341   8.09041e-06     0.0984339        106057        103075        312522   1.48231e-05
    0.0386987       289.221       288.344      0.127112      0.693242       12.5605             0      -4.35725      -7.51519             0       22.2602       3.17776             0       44.6597             0             0      0.207426   8.30465e-06     0.0980645        106056        103075        312547   1.52157e-05
    0.0386737       289.227       288.344      0.127205      0.718354       12.5972             0      -4.34695      -7.51905             0       22.2758       3.10608             0       44.8362             0             0       0.20751   8.51888e-06     0.0976951        106056        103075        312572   1.56082e-05
    0.0386486       289.233       288.343      0.127297      0.743466       12.6338             0      -4.33664      -7.52292             0       22.2914       3.03441             0       45.0127             0             0      0.207595   8.73312e-06     0.0973258        106056        103075        312597   1.60007e-05
    0.0386236       289.239       288.343       0.12739      0.768579       12.6705             0      -4.32634      -7.52678             0       22.3069       2.96273             0       45.1893             0             0      0.207679   8.94735e-06     0.0969564        106056        103074        312623   1.63932e-05
    0.0385986       289.244       288.343      0.127482      0.793691       12.7071             0      -4.31604      -7.53065             0       22.3225       2.89105             0       45.3658             0             0      0.207764   9.16159e-06     0.0965871        106055        103074        312648   1.67857e-05
    0.0385736        289.25       288.342      0.127575      0.818803       12.7438             0      -4.30574      -7.53451             0       22.3381       2.81937             0       45.5423             0             0      0.207848   9.37583e-06     0.0962177        106055        103074        312673   1.71783e-05
    0.0385485       289.256       288.342      0.127667      0.843915       12.7804             0      -4.29544      -7.53838             0       22.3536       2.74769             0       45.7188             0             0      0.207933   9.59006e-06     0.0958484        106055        103074        312698   1.75708e-05
    0.0385235       289.262       288.341       0.12776      0.869028       12.8171             0      -4.28514      -7.54224             0       22.3692       2.67601             0       45.8953             0             0      0.208017    9.8043e-06      0.095479        106055        103074        312723   1.79633e-05
    0.0384985       289.268       288.341      0.127852       0.89414       12.8537             0      -4.27484      -7.54611             0       22.3848       2.60433             0       46.0718             0             0      0.208102   1.00185e-05     0.0951097        106055        103074        312749   1.83558e-05
    0.0384735       289.274        288.34      0.127945      0.919252       12.8904             0      -4.26454      -7.54997             0       22.4003       2.53265             0       46.2484             0             0      0.208186   1.02328e-05     0.0947403        106054        103073        312774   1.87483e-05
    0.0384484        289.28        288.34      0.128037      0.944364       12.9271             0      -4.25423      -7.55384             0       22.4159       2.46097             0       46.4249             0             0       0.20827    1.0447e-05      0.094371        106054        103073        312799   1.91409e-05
    0.0384234       289.286       288.339       0.12813      0.969476       12.9637             0      -4.24393       -7.5577             0       22.4315       2.38929             0       46.6014             0             0      0.208355   1.06612e-05     0.0940016        106054        103073        312824   1.95334e-05
    0.0383984       289.292       288.339      0.128222      0.994589       13.0004             0      -4.23363      -7.56157             0        22.447       2.31761             0       46.7779             0             0      0.208439   1.08755e-05     0.0936323        106054        103073        312849   1.99259e-05
    0.0383734       289.298       288.338      0.128315        1.0197        13.037             0      -4.22333      -7.56543             0       22.4626       2.24594             0       46.9544             0             0      0.208524   1.10897e-05     0.0932629        106054        103073        312875   2.03184e-05
    0.0383483       289.304       288.338      0.128407       1.04481       13.0737             0      -4.21303       -7.5693             0       22.4782       2.17426             0        47.131             0             0      0.208608   1.13039e-05     0.0928936        106053        103073        312900   2.07109e-05
    0.0383233        289.31       288.338        0.1285       1.06993       13.1103             0      -4.20273      -7.57316             0       22.4937       2.10258             0       47.3075             0             0      0.208693   1.15182e-05     0.0925242        106053        103072        312925   2.11035e-05
    0.0382983       289.316       288.337      0.128593       1.09504        13.147             0      -4.19243      -7.57703             0       22.5093        2.0309             0        47.484             0             0      0.208777   1.17324e-05     0.0921549        106053        103072        312950    2.1496e-05
    0.0382733       289.322       288.337      0.128685       1.12015       13.1836             0      -4.18213      -7.58089             0       22.5249       1.95922             0       47.6605             0             0      0.208862   1.19467e-05     0.0917855        106053        103072        312975   2.18885e-05
    0.0382482       289.328       288.336      0.128778       1.14526       13.2203             0      -4.17182      -7.58476             0       22.5404       1.88754             0        47.837             0             0      0.208946   1.21609e-05     0.0914162        106052        103072        313001    2.2281e-05
    0.0382232       289.334       288.336       0.12887       1.17037       13.2569             0      -4.16152      -7.58862             0        22.556       1.81586             0       48.0136             0             0      0.209031   1.23751e-05     0.0910468        106052        103072        313026   2.26735e-05
    0.0381982        289.34       288.335      0.128963       1.19549       13.2936             0      -4.15122      -7.59249             0       22.5716       1.74418             0       48.1901             0             0      0.209115   1.25894e-05     0.0906774        106052        103072        313051   2.30661e-05
    0.0381732       289.346       288.335      0.129055        1.2206       13.3302             0      -4.14092      -7.59635             0       22.5871        1.6725             0       48.3666             0             0      0.209199   1.28036e-05     0.0903081        106052        103071        313076   2.34586e-05
    0.0381481       289.351       288.334      0.129148       1.24571       13.3669             0      -4.13062      -7.60022             0       22.6027       1.60082             0       48.5431             0             0      0.209284   1.30178e-05     0.0899387        106052        103071        313101   2.38511e-05
    0.0381231       289.357       288.334       0.12924       1.27082       13.4035             0      -4.12032      -7.60408             0       22.6183       1.52914             0       48.7196             0             0      0.209368   1.32321e-05     0.0895694        106051        103071        313127   2.42436e-05
    0.0380981       289.363       288.333      0.129333       1.29594       13.4402             0      -4.11002      -7.60795             0       22.6338       1.45746             0       48.8962             0             0      0.209453   1.34463e-05        0.0892        106051        103071        313152   2.46361e-05
    0.0380731       289.369       288.333      0.129425       1.32105       13.4768             0      -4.09972      -7.61181             0       22.6494       1.38579             0       49.0727             0             0      0.209537   1.36605e-05     0.0888307        106051        103071        313177   2.50286e-05
     0.038048       289.375       288.333      0.129518       1.34616       13.5135             0      -4.08941      -7.61568             0        22.665       1.31411             0       49.2492             0             0      0.209622   1.38748e-05     0.0884613        106051        103071        313202   2.54212e-05
     0.038023       289.381       288.332       0.12961       1.37127       13.5502             0      -4.07911      -7.61954             0       22.6805       1.24243             0       49.4257             0             0      0.209706    1.4089e-05      0.088092        106051        103070        313227   2.58137e-05
     0.037998       289.389       288.332      0.129702       1.39903       13.5853             0      -4.06835      -7.62308             0       22.6945       1.17236             0       49.6027             0             0      0.209787    1.4319e-05     0.0877364        106050        103070        313252   2.62351e-05
     0.037973       289.413       288.331      0.129789       1.45723       13.6035             0      -4.05229      -7.62293             0       22.6907       1.12087             0       49.7856             0             0      0.209832   1.47302e-05     0.0875398        106050        103070        313275   2.69884e-05
    0.0379479       289.438       288.331      0.129875       1.51543       13.6217             0      -4.03624      -7.62277             0       22.6868       1.06938             0       49.9684             0             0      0.209876   1.51413e-05     0.0873431        106050        103070        313298   2.77417e-05
    0.0379229       289.463       288.331      0.129962       1.57363       13.6399             0      -4.02018      -7.62261             0        22.683       1.01789             0       50.1512             0             0       0.20992   1.55525e-05     0.0871464        106049        103070        313320   2.84951e-05
    0.0378979       289.488        288.33      0.130049       1.63182       13.6581             0      -4.00412      -7.62245             0       22.6791      0.966403             0        50.334             0             0      0.209964   1.59636e-05     0.0869497        106049        103070        313343   2.92484e-05
    0.0378729       289.512        288.33      0.130135       1.69002       13.6763             0      -3.98806      -7.62229             0       22.6752      0.914913             0       50.5168             0             0      0.210009   1.63748e-05     0.0867531        106049        103070        313365   3.00017e-05
    0.0378478       289.537       288.329      0.130222       1.74822       13.6944             0      -3.97201      -7.62213             0       22.6714      0.863423             0       50.6996             0             0      0.210053    1.6786e-05     0.0865564        106048        103069        313388    3.0755e-05
    0.0378228       289.562       288.329      0.130309       1.80642       13.7126             0      -3.95595      -7.62197             0       22.6675      0.811932             0       50.8825             0             0      0.210097   1.71971e-05     0.0863597        106048        103069        313410   3.15084e-05
    0.0377978       289.586       288.329      0.130395       1.86462       13.7308             0      -3.93989      -7.62181             0       22.6636      0.760442             0       51.0653             0             0      0.210142   1.76083e-05      0.086163        106048        103069        313433   3.22617e-05
    0.0377728       289.611       288.328      0.130482       1.92282        13.749             0      -3.92384      -7.62165             0       22.6598      0.708952             0       51.2481             0             0      0.210186   1.80195e-05     0.0859663        106047        103069        313455    3.3015e-05
    0.0377477       289.636       288.328      0.130568       1.98102       13.7672             0      -3.90778      -7.62149             0       22.6559      0.657462             0       51.4309             0             0       0.21023   1.84306e-05     0.0857697        106047        103069        313478   3.37684e-05
    0.0377227       289.661       288.328      0.130655       2.03921       13.7854             0      -3.89172      -7.62133             0       22.6521      0.605972             0       51.6137             0             0      0.210274   1.88418e-05      0.085573        106047        103069        313500   3.45217e-05