#           y             T         TMean   TPrime2Mean           U_x           U_y           U_z       UMean_x       UMean_y       UMean_z UPrime2Mea... UPrime2Mea... UPrime2Mea... UPrime2Mea... UPrime2Mea... UPrime2Mea...            O2           H2O          C3H8             p         pMean   pPrime2Mean           CO2
         0.02       1371.66       310.989       17758.3       22.7842       14.8865             0       21.7197     -0.685288             0       39.7165      -3.38541             0       20.8416             0             0   1.02187e-06     0.0456567       0.53126        105715        103123        267692     0.0836516
    0.0201677       1370.86       309.906       16709.4       22.3757       14.8872             0       21.7415     -0.671001             0       39.6014      -2.67487             0       21.2115             0             0   9.78897e-07     0.0461619      0.526078        105717        103122        268316     0.0845772
    0.0203353       1370.07       308.823       15660.5       21.9671       14.8879             0       21.7632     -0.656715             0       39.4863      -1.96433             0       21.5813             0             0   9.35929e-07     0.0466671      0.520896        105719        103122        268939     0.0855029
     0.020503       1369.28        307.74       14611.5       21.5586       14.8886             0       21.7849     -0.642429             0       39.3712       -1.2538             0       21.9511             0             0    8.9296e-07     0.0471723      0.515714        105720        103121        269563     0.0864285
    0.0206707       1368.49       306.657       13562.6         21.15       14.8893             0       21.8067     -0.628142             0       39.2561     -0.543259             0        22.321             0             0   8.49992e-07     0.0476775      0.510532        105722        103121        270187     0.0873542
    0.0208383        1367.7       305.574       12513.7       20.7415         14.89             0       21.8284     -0.613856             0       39.1409      0.167279             0       22.6908             0             0   8.07023e-07     0.0481828       0.50535        105724        103120        270810     0.0882798
     0.021006       1366.59       304.501       11475.5       20.3319       14.8941             0       21.8447     -0.599163             0       39.0312      0.884951             0       23.0622             0             0   7.78672e-07     0.0486832      0.500217        105727        103120        271435     0.0891967
    0.0211737       1356.85       303.686       10727.2       19.8946       14.9905             0       21.7143     -0.573527             0       39.0649       1.79465             0       23.4745             0             0   1.14376e-06     0.0490557      0.496397        105731        103120        272104     0.0898792
    0.0213413       1347.11       302.871       9978.91       19.4573       15.0869             0       21.5838     -0.547892             0       39.0987       2.70435             0       23.8868             0             0   1.50885e-06     0.0494281      0.492577        105736        103119        272772     0.0905616
     0.021509       1337.37       302.056       9230.61         19.02       15.1833             0       21.4534     -0.522257             0       39.1324       3.61405             0       24.2991             0             0   1.87394e-06     0.0498006      0.488757        105741        103119        273440      0.091244
    0.0216767       1327.64       301.241        8482.3       18.5827       15.2797             0       21.3229     -0.496622             0       39.1661       4.52375             0       24.7113             0             0   2.23904e-06     0.0501731      0.484937        105745        103118        274109     0.0919264
    0.0218443        1317.9       300.425       7733.99       18.1454       15.3761             0       21.1925     -0.470987             0       39.1999       5.43345             0       25.1236             0             0   2.60413e-06     0.0505455      0.481117        105750        103118        274777     0.0926088
     0.022012       1307.54       299.622       7001.69       17.7148       15.4639             0       21.0511     -0.446401             0       39.2279       6.34196             0       25.5388             0             0   8.65979e-06     0.0508961      0.477497        105755        103117        275451     0.0932512
    0.0221797       1289.13       298.973        6476.8       17.3708       15.4402             0       20.7673     -0.435411             0       39.1825         7.235             0       25.9916             0             0   8.84558e-05     0.0509634      0.476464        105762        103117        276194     0.0933745
    0.0223473       1270.71       298.324        5951.9       17.0267       15.4165             0       20.4836     -0.424421             0        39.137       8.12805             0       26.4444             0             0   0.000168252     0.0510308      0.475431        105769        103116        276936     0.0934979
     0.022515       1252.29       297.675       5427.01       16.6827       15.3928             0       20.1998      -0.41343             0       39.0915        9.0211             0       26.8973             0             0   0.000248048     0.0510981      0.474399        105776        103116        277679     0.0936212
    0.0226827       1233.88       297.026       4902.12       16.3386       15.3692             0       19.9161      -0.40244             0        39.046       9.91414             0       27.3501             0             0   0.000327844     0.0511654      0.473366        105783        103115        278422     0.0937446
    0.0228504       1215.46       296.377       4377.23       15.9946       15.3455             0       19.6324      -0.39145             0       39.0006       10.8072             0       27.8029             0             0    0.00040764     0.0512327      0.472333        105790        103115        279165     0.0938679
     0.023018       1195.41       295.746       3872.31       15.6702       15.2998             0       19.3364     -0.383692             0       38.9294       11.6739             0       28.2764             0             0   0.000754619     0.0511433      0.471748        105797        103114        279917      0.093704
    0.0231857       1161.73       295.266       3533.26       15.5092       15.0714             0       18.9394      -0.40278             0       38.6448       12.3221             0       28.9217             0             0    0.00332071     0.0497514      0.474884        105804        103114        280743     0.0911538
    0.0233534       1128.06       294.786       3194.22       15.3482       14.8429             0       18.5423     -0.421868             0       38.3603       12.9703             0       29.5671             0             0    0.00588679     0.0483595      0.478019        105811        103113        281570     0.0886036
     0.023521       1094.39       294.306       2855.17       15.1872       14.6145             0       18.1452     -0.440957             0       38.0757       13.6185             0       30.2124             0             0    0.00845288     0.0469676      0.481155        105818        103113        282396     0.0860533
    0.0236887       1060.71       293.826       2516.13       15.0262       14.3861             0       17.7481     -0.460045             0       37.7911       14.2666             0       30.8578             0             0      0.011019     0.0455757       0.48429        105825        103113        283223     0.0835031
    0.0238564       1027.04       293.346       2177.08       14.8652       14.1576             0       17.3511     -0.479133             0       37.5066       14.9148             0       31.5031             0             0     0.0135851     0.0441838      0.487425        105832        103112        284049     0.0809529
     0.024024       992.235       292.892       1861.42       14.7154       13.9402             0       16.9533     -0.503834             0       37.2528       15.5119             0       32.1804             0             0     0.0165748     0.0425536      0.491164        105838        103112        284883     0.0779662
    0.0241917       950.678       292.591       1685.61       14.6321       13.7883             0       16.5511     -0.562095             0       37.1831       15.8033             0       33.0485             0             0     0.0220974     0.0394991      0.498509        105839        103111        285760     0.0723697
    0.0243594       909.121       292.291       1509.79       14.5489       13.6364             0        16.149     -0.620356             0       37.1134       16.0946             0       33.9166             0             0       0.02762     0.0364446      0.505854        105839        103111        286637     0.0667732
     0.024527       867.564       291.991       1333.98       14.4656       13.4846             0       15.7468     -0.678617             0       37.0436        16.386             0       34.7847             0             0     0.0331427       0.03339      0.513199        105840        103110        287514     0.0611767
    0.0246947       826.008        291.69       1158.16       14.3824       13.3327             0       15.3447     -0.736878             0       36.9739       16.6774             0       35.6528             0             0     0.0386653     0.0303355      0.520545        105840        103110        288391     0.0555802
    0.0248624       784.451        291.39       982.349       14.2991       13.1809             0       14.9425     -0.795139             0       36.9042       16.9688             0       36.5209             0             0     0.0441879     0.0272809       0.52789        105841        103109        289269     0.0499838
      0.02503       745.783       291.114       825.743       14.1884       13.0403             0        14.556     -0.859425             0       36.8233       17.2225             0       37.4288             0             0     0.0494498     0.0243558       0.53504        105840        103109        290156     0.0446243
    0.0251977       720.356       290.949       757.176       13.9516       12.9512             0       14.2412     -0.951328             0       36.6915       17.3036             0       38.5193             0             0     0.0535168     0.0220235      0.541296        105831        103108        291092     0.0403512
    0.0253654       694.929       290.785        688.61       13.7148       12.8622             0       13.9263      -1.04323             0       36.5597       17.3847             0       39.6097             0             0     0.0575838     0.0196913      0.547553        105822        103107        292028     0.0360782
     0.025533       669.502        290.62       620.043       13.4781       12.7732             0       13.6114      -1.13513             0       36.4278       17.4658             0       40.7001             0             0     0.0616507     0.0173591       0.55381        105813        103106        292964     0.0318051
    0.0257007       644.076       290.456       551.476       13.2413       12.6841             0       13.2966      -1.22704             0        36.296       17.5469             0       41.7905             0             0     0.0657177     0.0150269      0.560066        105804        103105        293899     0.0275321
    0.0258684       618.649       290.291       482.909       13.0045       12.5951             0       12.9817      -1.31894             0       36.1642        17.628             0       42.8809             0             0     0.0697847     0.0126947      0.566323        105795        103104        294835      0.023259
     0.026036       596.748       290.141       422.218       12.7455       12.5416             0       12.6786      -1.41485             0       35.9295       17.6744             0       44.0083             0             0      0.073284      0.010701      0.571571        105785        103103        295802     0.0196063
    0.0262037       587.727        290.04       390.292        12.405        12.618             0       12.4183       -1.5254             0       35.3194       17.5939             0        45.271             0             0     0.0747101     0.0099442      0.573138        105772        103102        296884     0.0182196
    0.0263714       578.706       289.939       358.366       12.0646       12.6943             0       12.1579      -1.63595             0       34.7092       17.5135             0       46.5336             0             0     0.0761362    0.00918735      0.574706        105760        103101        297965     0.0168329
     0.026539       569.684       289.838       326.441       11.7242       12.7707             0       11.8976       -1.7465             0        34.099        17.433             0       47.7963             0             0     0.0775622    0.00843051      0.576273        105747        103100        299047     0.0154463
    0.0267067       560.663       289.737       294.515       11.3838        12.847             0       11.6373      -1.85705             0       33.4889       17.3525             0       49.0589             0             0     0.0789883    0.00767366       0.57784        105734        103098        300129     0.0140596
    0.0268744       551.642       289.636        262.59       11.0434       12.9233             0        11.377      -1.96759             0       32.8787       17.2721             0       50.3216             0             0     0.0804143    0.00691682      0.579407        105721        103097        301210     0.0126729
     0.027042       543.252       289.542       233.837       10.7203       13.0328             0       11.1103      -2.07963             0       32.2467       17.1428             0       51.6116             0             0      0.081716    0.00628721      0.580209        105709        103096        302304     0.0115193
    0.0272097       536.747       289.469       214.566       10.4491       13.2413             0       10.8248      -2.19609             0       31.5493       16.8678             0       52.9837             0             0     0.0826459    0.00603782      0.578725        105701        103095        303434     0.0110624
    0.0273774       530.243       289.396       195.295       10.1779       13.4497             0       10.5392      -2.31256             0        30.852       16.5927             0       54.3557             0             0     0.0835758    0.00578843       0.57724        105692        103093        304564     0.0106055
     0.027545       523.738       289.323       176.024       9.90671       13.6582             0       10.2536      -2.42903             0       30.1546       16.3177             0       55.7277             0             0     0.0845057    0.00553904      0.575756        105683        103092        305693     0.0101485
    0.0277127       517.233       289.251       156.753       9.63552       13.8666             0       9.96802      -2.54549             0       29.4573       16.0426             0       57.0997             0             0     0.0854356    0.00528964      0.574272        105675        103090        306823    0.00969161
    0.0278804       510.728       289.178       137.483       9.36432       14.0751             0       9.68244      -2.66196             0       28.7599       15.7675             0       58.4717             0             0     0.0863655    0.00504025      0.572787        105666        103089        307953    0.00923468
     0.028048       503.559       289.111       120.422       9.13718       14.2666             0        9.3928      -2.78063             0        28.082       15.4472             0       59.8287             0             0     0.0874778    0.00480083      0.570408        105660        103087        309057    0.00879602
    0.0282157       494.735       289.059       108.866       9.01971       14.4159             0       9.09305      -2.90479             0       27.4525        15.014             0       61.1484             0             0     0.0890441    0.00458625      0.565799        105661        103085        310093    0.00840286
    0.0283834        485.91       289.006       97.3095       8.90224       14.5652             0        8.7933      -3.02894             0        26.823       14.5808             0       62.4681             0             0     0.0906103    0.00437166       0.56119        105662        103084        311130     0.0080097
    0.0285511       477.086       288.954       85.7531       8.78477       14.7144             0       8.49355      -3.15309             0       26.1936       14.1476             0       63.7878             0             0     0.0921766    0.00415708      0.556582        105663        103082        312167    0.00761654
    0.0287187       468.261       288.901       74.1967        8.6673       14.8637             0        8.1938      -3.27725             0       25.5641       13.7144             0       65.1075             0             0     0.0937429    0.00394249      0.551973        105664        103081        313204    0.00722338
    0.0288864       459.437       288.849       62.6403       8.54983        15.013             0       7.89405       -3.4014             0       24.9346       13.2812             0       66.4272             0             0     0.0953092     0.0037279      0.547364        105665        103079        314241    0.00683021
    0.0290541        450.51       288.802       52.9805       8.47155       15.1341             0       7.59549      -3.52726             0       24.3375       12.8112             0       67.6683             0             0     0.0972375     0.0035154      0.541161        105667        103077        315191    0.00644086
    0.0292217       441.367       288.767       47.3073       8.47564       15.1957             0       7.29941       -3.6567             0       23.8083       12.2638             0       68.7444             0             0     0.0999267    0.00330726      0.531603        105672        103076        315957    0.00605952
    0.0293894       432.224       288.732        41.634       8.47973       15.2573             0       7.00334      -3.78613             0       23.2791       11.7164             0       69.8204             0             0      0.102616    0.00309912      0.522046        105677        103074        316724    0.00567817
    0.0295571       423.082       288.697       35.9607       8.48381       15.3189             0       6.70726      -3.91557             0         22.75        11.169             0       70.8964             0             0      0.105305    0.00289098      0.512489        105682        103073        317490    0.00529682
    0.0297247       413.939       288.662       30.2875        8.4879       15.3806             0       6.41119      -4.04501             0       22.2208       10.6216             0       71.9725             0             0      0.107995    0.00268285      0.502932        105687        103071        318257    0.00491547
    0.0298924       404.796       288.626       24.6142       8.49199       15.4422             0       6.11511      -4.17445             0       21.6916       10.0742             0       73.0485             0             0      0.110684    0.00247471      0.493375        105692        103070        319023    0.00453413
    0.0300601       396.422       288.596       20.1651       8.50852       15.4739             0       5.82383      -4.30363             0       21.2403       9.50539             0       73.9909             0             0      0.113621    0.00228348      0.482567        105698        103068        319658    0.00418376
    0.0302277       389.424       288.574       17.9091       8.54731       15.4518             0       5.54114      -4.43234             0       20.9286       8.89829             0        74.694             0             0      0.117002    0.00212254      0.469517        105704        103067        320058    0.00388889
    0.0303954       382.427       288.552       15.6531        8.5861       15.4298             0       5.25844      -4.56106             0       20.6169       8.29118             0        75.397             0             0      0.120383    0.00196161      0.456467        105711        103066        320458    0.00359403
    0.0305631       375.429       288.531       13.3971       8.62489       15.4078             0       4.97575      -4.68978             0       20.3052       7.68407             0          76.1             0             0      0.123765    0.00180067      0.443418        105717        103064        320857    0.00329917
    0.0307307       368.431       288.509       11.1412       8.66368       15.3858             0       4.69306      -4.81849             0       19.9934       7.07696             0       76.8031             0             0      0.127146    0.00163974      0.430368        105724        103063        321257     0.0030043
    0.0308984       361.433       288.487       8.88518       8.70248       15.3638             0       4.41036      -4.94721             0       19.6817       6.46985             0       77.5061             0             0      0.130527     0.0014788      0.417318        105730        103062        321657    0.00270944
    0.0310661         355.4       288.468       7.19611       8.73958       15.3206             0       4.13472      -5.07282             0       19.4719       5.87206             0       78.0517             0             0        0.1339    0.00134232      0.404054        105737        103061        321932    0.00245938
    0.0312337        350.85       288.455       6.37886        8.7741       15.2447             0       3.86991      -5.19364             0       19.4188       5.28859             0       78.3553             0             0      0.137261    0.00124345      0.390458        105744        103060        322016    0.00227824
    0.0314014       346.299       288.442       5.56162       8.80862       15.1689             0        3.6051      -5.31447             0       19.3658       4.70512             0       78.6588             0             0      0.140621    0.00114459      0.376862        105751        103059        322100     0.0020971
    0.0315691       341.749       288.429       4.74437       8.84314        15.093             0       3.34029      -5.43529             0       19.3128       4.12165             0       78.9624             0             0      0.143981    0.00104572      0.363267        105758        103058        322184    0.00191595
    0.0317367       337.198       288.416       3.92713       8.87766       15.0171             0       3.07549      -5.55612             0       19.2597       3.53817             0       79.2659             0             0      0.147342   0.000946853      0.349671        105765        103057        322268    0.00173481
    0.0319044       332.648       288.403       3.10989       8.91218       14.9412             0       2.81068      -5.67694             0       19.2067        2.9547             0       79.5694             0             0      0.150702   0.000847986      0.336075        105772        103056        322352    0.00155367
    0.0320721       328.798       288.392       2.51952       8.94295        14.844             0       2.55391      -5.79228             0       19.2466       2.41026             0       79.7227             0             0      0.153971   0.000766538      0.322696        105781        103055        322336    0.00140444
    0.0322397       325.878       288.385       2.23008       8.96874       14.7184             0       2.30782      -5.90034             0         19.41       1.91759             0       79.6767             0             0       0.15712   0.000708193      0.309603        105792        103055        322190    0.00129754
    0.0324074       322.958       288.377       1.94065       8.99453       14.5928             0       2.06172       -6.0084             0       19.5734       1.42492             0       79.6307             0             0       0.16027   0.000649848       0.29651        105802        103054        322043    0.00119064
    0.0325751       320.038       288.369       1.65121       9.02032       14.4672             0       1.81562      -6.11646             0       19.7368      0.932248             0       79.5848             0             0      0.163419   0.000591502      0.283417        105813        103053        321897    0.00108374
    0.0327427       317.118       288.361       1.36177       9.04612       14.3416             0       1.56952      -6.22452             0       19.9002      0.439577             0       79.5388             0             0      0.166568   0.000533157      0.270324        105824        103053        321750   0.000976844
    0.0329104       314.198       288.353       1.07234       9.07191        14.216             0       1.32342      -6.33258             0       20.0636    -0.0530941             0       79.4928             0             0      0.169717   0.000474812       0.25723        105835        103052        321604   0.000869945
    0.0330781       311.771       288.346      0.872929       9.08771       14.0677             0       1.08762      -6.43376             0       20.2493      -0.45381             0       79.3003             0             0      0.172742    0.00042738      0.244563        105846        103051        321412    0.00078304
    0.0332457       309.911       288.341      0.776824       9.09206       13.8933             0      0.863627      -6.52704             0       20.4606     -0.749014             0       78.9396             0             0      0.175626    0.00039247      0.232385        105858        103051        321169   0.000719078
    0.0334134       308.051       288.336      0.680719        9.0964       13.7189             0      0.639635      -6.62032             0       20.6718      -1.04422             0        78.579             0             0      0.178509   0.000357559      0.220207        105870        103051        320925   0.000655115
    0.0335811       306.191       288.331      0.584614       9.10074       13.5445             0      0.415644       -6.7136             0       20.8831      -1.33942             0       78.2183             0             0      0.181392   0.000322649      0.208029        105882        103050        320682   0.000591153
    0.0337487       304.331       288.326       0.48851       9.10509       13.3701             0      0.191652      -6.80688             0       21.0944      -1.63462             0       77.8577             0             0      0.184275   0.000287738      0.195851        105894        103050        320438    0.00052719
    0.0339164       302.471       288.321      0.392405       9.10943       13.1957             0      -0.03234      -6.90016             0       21.3056      -1.92983             0        77.497             0             0      0.187159   0.000252828      0.183673        105906        103050        320195   0.000463228
    0.0340841       300.962       288.317      0.330173        9.0532         13.04             0     -0.243625      -6.98488             0       21.4765       -2.0967             0       77.0003             0             0      0.189757   0.000225018      0.172663        105916        103049        319950   0.000412275
    0.0342518       299.803       288.314      0.301612       8.93676       12.9028             0     -0.442278      -7.06112             0       21.6071        -2.136             0       76.3682             0             0      0.192071   0.000204267      0.162813        105925        103049        319704   0.000374254
    0.0344194       298.644       288.312       0.27305       8.82031       12.7656             0     -0.640931      -7.13735             0       21.7377      -2.17531             0       75.7361             0             0      0.194386   0.000183515      0.152964        105933        103049        319458   0.000336234
    0.0345871       297.485       288.309      0.244489       8.70387       12.6284             0     -0.839584      -7.21358             0       21.8683      -2.21461             0        75.104             0             0        0.1967   0.000162763      0.143114        105942        103049        319213   0.000298213
    0.0347548       296.326       288.306      0.215928       8.58743       12.4912             0      -1.03824      -7.28981             0        21.999      -2.25392             0       74.4719             0             0      0.199014   0.000142012      0.133264        105951        103049        318967   0.000260192
    0.0349224       295.167       288.303      0.187366       8.47098        12.354             0      -1.23689      -7.36604             0       22.1296      -2.29322             0       73.8398             0             0      0.201329    0.00012126      0.123415        105959        103049        318721   0.000222172
    0.0350901       294.293       288.301      0.170692       8.23623       12.2844             0      -1.42389      -7.43122             0       22.2173      -2.21857             0       73.0798             0             0      0.203049    0.00010575      0.116093        105966        103050        318496   0.000193754
    0.0352578       293.664       288.299      0.164253        7.8996       12.2731             0      -1.60086       -7.4869             0       22.2681      -2.04579             0       72.2096             0             0      0.204259   9.47532e-05      0.110948        105971        103050        318290   0.000173606