#           y             T         TMean   TPrime2Mean           U_x           U_y           U_z       UMean_x       UMean_y       UMean_z UPrime2Mea... UPrime2Mea... UPrime2Mea... UPrime2Mea... UPrime2Mea... UPrime2Mea...            O2           H2O          C3H8             p         pMean   pPrime2Mean           CO2
            0       288.424       288.306      0.225089       39.5762             0             0       14.9375             0             0       44.5051             0             0             0             0             0      0.172559   1.07223e-15      0.249747        104754        103171        269051   1.96452e-15
  0.000500501       288.517       288.314      0.227013       39.2649    -0.0619349             0       14.9356     0.0239676             0       43.9433      0.148469             0     0.0739452             0             0      0.167945    1.1775e-15      0.269808        104755        103171        269052    2.1574e-15
     0.001001       288.611       288.321       0.22894       38.9537     -0.123832             0       14.9338     0.0479361             0       43.3811      0.296924             0      0.148082             0             0      0.163331   1.28298e-15      0.289866        104755        103171        269054   2.35067e-15
    0.0015015       288.725       288.335       0.23242       38.6295     -0.166919             0       14.9384      0.072348             0       42.5819       0.43867             0      0.318005             0             0      0.159082   1.49498e-15      0.308342        104754        103171        269022   2.73909e-15
     0.002002       288.838       288.348      0.235913       38.3076     -0.210048             0       14.9431     0.0967545             0       41.7857      0.580305             0      0.488383             0             0      0.154865   1.70711e-15      0.326673        104753        103171        268990   3.12775e-15
    0.0025025       288.818       288.357      0.242267       38.5601     -0.263434             0       14.9709      0.119812             0       41.7248      0.694065             0      0.772054             0             0      0.158906   1.95049e-15      0.309104        104750        103171        268903   3.57367e-15
     0.003003       288.798       288.366      0.248635       38.8143     -0.316978             0       14.9989      0.142845             0       41.6667      0.807396             0       1.05651             0             0      0.162959   2.19324e-15      0.291484        104748        103170        268816   4.01843e-15
    0.0035035       288.713        288.37      0.257281       39.3639     -0.396585             0       15.0501      0.161749             0       42.0933      0.849679             0       1.47034             0             0      0.168933   2.33029e-15      0.265508        104743        103170        268627   4.26952e-15
     0.004004       288.629       288.374      0.265861       39.9137     -0.476226             0       15.1014      0.180618             0       42.5202      0.891236             0       1.88524             0             0       0.17489   2.46588e-15      0.239611        104738        103169        268438   4.51795e-15
    0.0045045       288.552        288.38      0.266177       40.4842      -0.55998             0       15.1537      0.195191             0       42.9874      0.842796             0       2.43196             0             0      0.178626   2.42156e-15      0.223366        104732        103168        268137   4.43675e-15
   0.00500501       288.475       288.386      0.266401       41.0547     -0.643787             0       15.2057      0.209758             0        43.453      0.794052             0       2.97965             0             0      0.182348   2.37638e-15      0.207182        104726        103168        267836   4.35396e-15
   0.00550551       288.417       288.395      0.257446       41.6388     -0.732747             0       15.2254      0.223766             0       43.7677      0.715194             0       3.62295             0             0      0.184689   2.24604e-15      0.197005        104718        103167        267477   4.11517e-15
   0.00600601        288.36       288.404      0.248485       42.2226     -0.821952             0       15.2443      0.237823             0       44.0773      0.637286             0       4.26658             0             0      0.187015   2.11568e-15      0.186892        104710        103166        267117   3.87632e-15
   0.00650651       288.331       288.414       0.23902       42.7868     -0.931358             0       15.2006      0.255795             0       43.9608      0.637538             0       4.93841             0             0      0.188122    1.9827e-15      0.182078        104699        103165        266666   3.63267e-15
   0.00700701       288.302       288.424       0.22959       43.3496      -1.04095             0       15.1559      0.273851             0       43.8355      0.639725             0       5.60994             0             0      0.189218   1.85072e-15      0.177313        104688        103164        266213   3.39087e-15
   0.00750751       288.297       288.433      0.222602       43.8194      -1.16353             0       15.0414      0.297763             0       43.0905      0.778188             0        6.2605             0             0      0.189501   1.78962e-15      0.176083        104676        103163        265673   3.27892e-15
   0.00800801       288.293       288.442      0.215637       44.2881      -1.28624             0       14.9261      0.321735             0       42.3393      0.918093             0       6.91082             0             0      0.189783   1.72928e-15      0.174859        104663        103162        265131   3.16836e-15
   0.00850851       288.296       288.451      0.210074       44.6916      -1.41614             0       14.7632      0.349458             0       41.2016       1.14667             0       7.54681             0             0      0.189984   1.71525e-15      0.173984        104648        103161        264541   3.14265e-15
   0.00900901       288.298        288.46      0.204528       45.0954      -1.54624             0       14.5999       0.37719             0       40.0641       1.37549             0       8.18306             0             0      0.190189   1.70143e-15      0.173091        104633        103160        263950   3.11734e-15
   0.00950951       288.302        288.47      0.199908       45.5192      -1.68712             0       14.4187      0.405376             0       38.9334       1.61737             0       8.83415             0             0       0.19062   1.69916e-15      0.171217        104616        103159        263314   3.11318e-15
      0.01001       288.305       288.481       0.19532       45.9412      -1.82817             0       14.2374      0.433563             0       37.8044       1.85928             0       9.48552             0             0      0.191066   1.69663e-15      0.169277        104598        103158        262678   3.10854e-15
    0.0105105       288.308       288.491      0.192259       46.2726      -1.97813             0       14.0512      0.461812             0       36.7593       2.10258             0       10.1505             0             0      0.192265   1.68143e-15      0.164064        104578        103157        261993   3.08069e-15
     0.011011       288.311       288.502       0.18927        46.596      -2.12818             0       13.8647      0.490109             0       35.7113       2.34661             0       10.8151             0             0       0.19349   1.66562e-15      0.158739        104557        103155        261306   3.05173e-15
    0.0115115        288.31       288.512      0.189464       46.5681      -2.28193             0       13.6665      0.520575             0       34.5342       2.62289             0       11.4613             0             0       0.19586   1.62273e-15      0.148431        104534        103154        260576   2.97314e-15
     0.012012       288.309       288.522       0.18971       46.5279      -2.43586             0       13.4678      0.551085             0       33.3504       2.89959             0       12.1067             0             0       0.19823   1.57972e-15      0.138129        104511        103153        259846   2.89434e-15
    0.0125125       288.305       288.531      0.192064       45.9861      -2.59736             0       13.2509      0.583362             0       31.8895       3.19371             0       12.7168             0             0      0.200549   1.53172e-15      0.128046        104486        103152        259153    2.8064e-15
     0.013013       288.301        288.54      0.194377       45.4328      -2.75924             0       13.0339      0.615604             0       30.4238       3.48655             0       13.3261             0             0      0.202842   1.48433e-15      0.118073        104461        103151        258461   2.71957e-15
    0.0135135       288.304       288.548      0.195158       44.4482      -2.93516             0        12.809      0.646501             0       28.7755       3.73134             0       13.9083             0             0      0.204186   1.45934e-15      0.112232        104435        103150        257805   2.67379e-15
     0.014014       288.307       288.555      0.195871       43.4577       -3.1116             0       12.5841      0.677349             0       27.1284       3.97404             0       14.4884             0             0      0.205519   1.43479e-15      0.106435        104410        103149        257149    2.6288e-15
    0.0145145       288.319       288.562      0.194249       42.2622      -3.30561             0        12.359      0.706525             0        25.522       4.14441             0       14.9991             0             0      0.206496   1.42501e-15      0.102188        104386        103148        256550   2.61089e-15
     0.015015        288.33       288.568      0.192598       41.0654       -3.5001             0       12.1336      0.735778             0       23.9224       4.31323             0       15.5044             0             0      0.207465   1.41536e-15     0.0979741        104362        103147        255953   2.59321e-15
    0.0155155        288.34       288.574      0.189988       39.8293      -3.70997             0        11.897      0.767502             0       22.5426       4.43167             0       15.8357             0             0      0.208186   1.40971e-15      0.094839        104339        103146        255449   2.58285e-15
     0.016016        288.35       288.579      0.187409       38.5914      -3.91989             0       11.6598      0.799354             0       21.1741        4.5471             0       16.1598             0             0        0.2089   1.40405e-15     0.0917364        104316        103145        254948   2.57249e-15
    0.0165165       288.356       288.584       0.18572       37.3002      -4.13129             0       11.4039      0.835048             0       20.1505       4.57158             0       16.2685             0             0      0.209387    1.3982e-15     0.0896181        104294        103145        254536   2.56177e-15
     0.017017       288.363       288.588      0.184095       36.0044      -4.34237             0       11.1476      0.870716             0       19.1416       4.58917             0       16.3721             0             0      0.209877   1.39233e-15     0.0874891        104273        103144        254127   2.55101e-15
    0.0175175       288.376        288.59       0.18424       34.5782       -4.5443             0       10.8832      0.905661             0       18.5537       4.41076             0       16.3309             0             0      0.210436    1.3859e-15      0.085059        104253        103144        253774   2.53923e-15
     0.018018        288.39       288.592      0.184457       33.1465      -4.74542             0       10.6187      0.940438             0        17.981       4.22378             0       16.2868             0             0      0.210998   1.37947e-15     0.0826125        104234        103144        253424   2.52745e-15
    0.0185185       288.403       288.592      0.186599       31.5661      -4.92477             0       10.3561      0.970719             0       17.8154       3.80719             0       16.1659             0             0      0.211662   1.37305e-15      0.079727        104218        103144        253140   2.51569e-15
     0.019019       288.416       288.592      0.188805       29.9803      -5.10213             0       10.0936       1.00085             0       17.6621       3.38471             0       16.0423             0             0       0.21232   1.36669e-15     0.0768677        104202        103143        252858   2.50404e-15
    0.0195195       288.427       288.591      0.192611       28.2583      -5.22908             0       9.83555       1.02715             0        17.821       2.81347             0       15.8508             0             0      0.212826   1.36188e-15     0.0746702        104191        103143        252651   2.49522e-15
      0.02002       288.437        288.59      0.196476       26.5317      -5.35302             0       9.57772       1.05342             0       17.9886       2.24227             0       15.6562             0             0      0.213321   1.35718e-15     0.0725188        104180        103143        252445   2.48661e-15
    0.0205205       288.448        288.59      0.201756       24.6925       -5.4047             0       9.32422       1.07888             0       18.3613       1.67194             0       15.3878             0             0      0.213561   1.35511e-15      0.071474        104174        103144        252254   2.48282e-15
     0.021021       288.458       288.589      0.207136       22.8516      -5.45266             0       9.07126       1.10451             0       18.7348       1.10648             0       15.1155             0             0      0.213796   1.35311e-15      0.070454        104169        103144        252065   2.47916e-15
    0.0215215       288.465        288.59      0.214822       20.9716      -5.41584             0       8.83085       1.13419             0       19.1262      0.652219             0       14.7534             0             0        0.2139   1.35258e-15     0.0699994        104170        103144        251929   2.47817e-15
     0.022022       288.471       288.591      0.222656       19.0944       -5.3752             0       8.59173       1.16383             0        19.507      0.207373             0       14.3892             0             0      0.213998   1.35212e-15     0.0695769        104171        103144        251797   2.47734e-15
    0.0225225       288.473       288.594      0.233704       17.2766       -5.2514             0       8.38083       1.19266             0       19.6606    -0.0329905             0       13.9788             0             0      0.213935   1.35351e-15     0.0698513        104178        103144        251751   2.47988e-15
     0.023023       288.474       288.596      0.244756        15.466      -5.12367             0       8.17113       1.22164             0       19.8083     -0.266733             0       13.5687             0             0       0.21386     1.355e-15     0.0701747        104186        103145        251709   2.48261e-15
    0.0235235       288.472       288.599      0.255887       13.8056      -4.91459             0       7.98631       1.25391             0       19.8353     -0.363145             0        13.165             0             0      0.213552   1.35861e-15     0.0715148        104198        103145        251761   2.48923e-15
     0.024024        288.47       288.601      0.266892       12.1553      -4.70299             0       7.80244       1.28639             0       19.8642      -0.45451             0       12.7625             0             0      0.213227   1.36232e-15     0.0729319        104211        103145        251818   2.49603e-15
    0.0245245       288.472       288.602      0.275403       10.7071      -4.44133             0       7.63735       1.32306             0       19.9288     -0.445757             0       12.3834             0             0      0.212549   1.36788e-15     0.0758769        104227        103145        251955    2.5062e-15
     0.025025       288.476       288.604      0.283846       9.26623      -4.17996             0       7.47301       1.35977             0       20.0014     -0.431304             0       12.0061             0             0       0.21185   1.37347e-15     0.0789166        104243        103146        252097   2.51645e-15
    0.0255255       288.489        288.61      0.291008       7.96668      -3.92426             0       7.32288       1.39727             0       20.2263     -0.308574             0       11.6617             0             0      0.210737   1.37973e-15      0.083757        104261        103146        252343   2.52792e-15
     0.026026       288.504       288.615      0.298031       6.67578      -3.66841             0       7.17307       1.43516             0       20.4731      -0.18936             0       11.3208             0             0       0.20961   1.38596e-15     0.0886586        104280        103146        252596   2.53935e-15
    0.0265265       288.527       288.621      0.302526       5.54269      -3.40969             0       7.02909       1.48036             0       21.1199      -0.13427             0       11.0432             0             0      0.208226   1.39178e-15     0.0946757        104299        103146        252984   2.54999e-15
     0.027027       288.551       288.627      0.306723       4.42565      -3.14913             0        6.8861       1.52567             0       21.7808    -0.0865319             0        10.772             0             0      0.206851   1.39754e-15      0.100653        104318        103146        253379   2.56056e-15
    0.0275275       288.575        288.63      0.305719        3.5897      -2.85628             0       6.76033       1.57275             0       22.6891     -0.167608             0       10.6144             0             0      0.205636   1.40256e-15      0.105933        104337        103146        253877   2.56975e-15
     0.028028         288.6       288.632       0.30436       2.76369      -2.56407             0       6.63699       1.61939             0       23.5816     -0.251216             0       10.4633             0             0      0.204448    1.4075e-15      0.111101        104356        103146        254379   2.57881e-15
    0.0285285        288.62       288.629      0.297027       2.10526      -2.28259             0       6.55455       1.65849             0       24.2099     -0.377495             0       10.4224             0             0      0.203689   1.41119e-15      0.114401        104373        103146        254950   2.58557e-15
     0.029029       288.641       288.626      0.289526       1.44468      -2.00418             0       6.47546       1.69675             0       24.7966     -0.499395             0       10.3867             0             0      0.202928   1.41489e-15      0.117708        104390        103145        255526   2.59234e-15
    0.0295295       288.681        288.62      0.279277      0.749424      -1.77557             0       6.45093       1.72116             0       24.7066     -0.550187             0       10.4351             0             0      0.202139   1.41866e-15      0.121139        104405        103145        256203   2.59925e-15
      0.03003       288.723       288.615      0.269034     0.0573388      -1.54823             0       6.42947       1.74462             0       24.5689     -0.594924             0       10.4867             0             0      0.201329   1.42238e-15      0.124659        104419        103145        256884   2.60606e-15
    0.0305305       288.786       288.611      0.258882     -0.585045      -1.34074             0       6.45609       1.75313             0       23.6819     -0.544801             0       10.5903             0             0      0.200199   1.42525e-15      0.129571        104432        103144        257654   2.61133e-15
     0.031031       288.848       288.606      0.248656      -1.21208      -1.13371             0       6.48455        1.7608             0       22.7626       -0.4932             0       10.6956             0             0      0.199076   1.42782e-15      0.134455        104445        103144        258430   2.61604e-15
    0.0315315       288.894       288.605      0.237318      -1.60687     -0.933465             0       6.54088       1.75582             0       21.3541     -0.419251             0       10.8276             0             0      0.198052   1.42572e-15      0.138906        104455        103143        259300   2.61218e-15
     0.032032       288.938       288.604      0.225902      -1.99123     -0.734536             0       6.59778       1.75025             0       19.9393     -0.349751             0         10.96             0             0      0.197041   1.42313e-15      0.143303        104465        103143        260174   2.60744e-15
    0.0325325        288.96       288.605      0.213338      -2.22313     -0.554842             0       6.66307       1.73616             0         18.43     -0.345308             0       11.0974             0             0      0.196209   1.41356e-15      0.146917        104473        103143        261112   2.58991e-15
     0.033033        288.98       288.606      0.200864      -2.45741     -0.375813             0       6.72837       1.72179             0       16.9339     -0.347277             0       11.2343             0             0      0.195381   1.40291e-15      0.150518        104480        103143        262048   2.57039e-15
    0.0335335       288.979       288.608      0.189653      -2.72524     -0.206206             0        6.7939       1.70336             0       15.6247     -0.439999             0       11.3617             0             0      0.194592   1.37695e-15      0.153947        104486        103142        262957   2.52283e-15
     0.034034       288.976       288.609      0.178615      -2.98996    -0.0373695             0       6.85955       1.68474             0        14.333     -0.537943             0       11.4881             0             0      0.193809   1.34844e-15      0.157352        104491        103142        263867   2.47059e-15
    0.0345345       288.946       288.611      0.169963       -3.2118      0.120892             0       6.92703       1.66366             0       13.2825     -0.707461             0       11.6007             0             0      0.193102   1.28491e-15      0.160423        104495        103142        264785    2.3542e-15
     0.035035       288.915       288.612      0.161464      -3.41606      0.277002             0       6.99507       1.64247             0       12.2434     -0.883243             0       11.7111             0             0      0.192416   1.22046e-15       0.16341        104499        103142        265701    2.2361e-15
    0.0355355       288.879       288.613      0.154998      -3.38682      0.404533             0       7.07054       1.61996             0        11.355      -1.14225             0        11.794             0             0      0.191991   1.14357e-15      0.165257        104502        103142        266600   2.09522e-15
     0.036036       288.843       288.613      0.148636       -3.3428      0.530125             0       7.14633       1.59735             0        10.481      -1.40935             0       11.8708             0             0      0.191589   1.06822e-15      0.167004        104506        103142        267490   1.95718e-15
    0.0365365       288.819       288.614       0.14362      -3.10833      0.630719             0       7.22625        1.5734             0        9.7922      -1.78069             0       11.8677             0             0      0.191486   1.01281e-15      0.167452        104508        103143        268273   1.85565e-15
     0.037037       288.797       288.614      0.138675       -2.8699      0.729892             0       7.30534       1.54909             0       9.13265      -2.15808             0       11.8542             0             0      0.191386   9.59152e-16      0.167887        104511        103143        269051   1.75735e-15
    0.0375375       288.785       288.616      0.134613      -2.58204      0.811277             0       7.37398       1.52024             0       8.83973      -2.61112             0       11.7114             0             0      0.191327   9.27471e-16      0.168148        104513        103143        269766    1.6993e-15
     0.038038       288.775       288.617      0.130594      -2.28942       0.88967             0       7.44105         1.491             0       8.58715      -3.06585             0       11.5568             0             0      0.191262   8.98063e-16      0.168428        104516        103144        270474   1.64542e-15
    0.0385385       288.774       288.618      0.127106      -1.93895      0.931684             0       7.48921       1.45706             0       8.82498      -3.54123             0       11.2603             0             0      0.191143   8.96301e-16      0.168945        104519        103144        271101   1.64219e-15
     0.039039       288.773        288.62      0.123628      -1.58218      0.970315             0       7.53546       1.42278             0       9.11205      -4.01371             0       10.9517             0             0      0.191023   8.96917e-16      0.169468        104521        103145        271716   1.64332e-15
    0.0395395       288.776       288.621      0.120275      -1.15086      0.968965             0       7.55915       1.38436             0       9.98121      -4.45183             0       10.4993             0             0      0.190887   9.25658e-16       0.17006        104525        103146        272189   1.69598e-15
      0.04004       288.779       288.622      0.116925     -0.727296      0.966481             0       7.58048       1.34556             0        10.907      -4.88142             0        10.036             0             0      0.190765   9.55468e-16       0.17059        104529        103147        272655    1.7506e-15
    0.0405405       288.773       288.623      0.113609      -0.39296      0.950951             0       7.57456       1.30235             0       12.4843      -5.21275             0       9.44745             0             0      0.190805   9.97571e-16      0.170413        104533        103148        273039   1.82774e-15
     0.041041       288.766       288.622      0.110281     -0.077252      0.936308             0       7.56578       1.25868             0       14.1098      -5.53034             0       8.85076             0             0      0.190871   1.04237e-15      0.170127        104538        103150        273415   1.90981e-15
    0.0415415       288.739        288.62      0.106826     0.0299228      0.931602             0       7.52484       1.20991             0        16.276      -5.69397             0       8.16306             0             0      0.191221    1.1173e-15      0.168606        104544        103151        273709   2.04711e-15
     0.042042       288.712       288.618      0.103409      0.133298      0.927915             0       7.48054       1.16049             0       18.4661      -5.84243             0       7.47208             0             0       0.19156   1.19287e-15      0.167133        104550        103153        273989   2.18557e-15
    0.0425425       288.687       288.614      0.100415      0.195236      0.935338             0       7.39955       1.10413             0        20.916      -5.82533             0       6.74527             0             0       0.19178   1.27539e-15      0.166174        104557        103154        274122   2.33674e-15
     0.043043       288.665        288.61     0.0975449      0.267982      0.943206             0       7.31555       1.04714             0       23.3711      -5.79572             0       6.02102             0             0      0.191935   1.35728e-15        0.1655        104565        103155        274251   2.48678e-15
    0.0435435       288.671       288.605     0.0960035      0.455602      0.955799             0       7.19947      0.983448             0       25.8812       -5.6331             0       5.32388             0             0      0.191392   1.43258e-15      0.167861        104573        103157        274329   2.62475e-15
     0.044044       288.678         288.6     0.0946211      0.630672      0.967089             0       7.08128       0.91908             0       28.3921      -5.46338             0       4.63226             0             0      0.190801   1.50914e-15      0.170428        104582        103158        274405   2.76502e-15
    0.0445445       288.704       288.595     0.0948857      0.675685      0.964864             0       6.94122      0.847741             0       30.9111      -5.22022             0       3.99787             0             0      0.189721   1.59871e-15      0.175127        104591        103160        274469   2.92914e-15
     0.045045       288.731        288.59      0.095309      0.670855      0.959168             0       6.79941      0.775659             0       33.4239       -4.9724             0       3.36971             0             0      0.188602   1.69037e-15      0.179992        104600        103161        274524   3.09707e-15
    0.0455455       288.777       288.586      0.097336      0.162044      0.918381             0          6.64      0.696073             0       35.8754      -4.67749             0       2.80447             0             0      0.187098   1.80304e-15      0.186531        104610        103162        274492   3.30351e-15