#           y             T         TMean   TPrime2Mean           U_x           U_y           U_z       UMean_x       UMean_y       UMean_z UPrime2Mea... UPrime2Mea... UPrime2Mea... UPrime2Mea... UPrime2Mea... UPrime2Mea...            O2           H2O          C3H8             p         pMean   pPrime2Mean           CO2
  1.11022e-19       288.704       288.557     0.0902886       14.0755  -5.21107e-17             0       12.4376   6.92144e-19             0       33.8991  -1.53539e-18             0   7.20633e-18             0             0      0.190554   2.19543e-15      0.171506        103958        103130        285334   4.02245e-15
  0.000500501       288.705       288.566     0.0891214       14.1225     -0.234921             0       12.3958    0.00312026             0       33.4966   -0.00692172             0     0.0324869             0             0      0.190857   2.16648e-15      0.170187        103958        103130        285341   3.96939e-15
     0.001001       288.706       288.575     0.0879627       14.1697     -0.469775             0        12.354    0.00624235             0       33.0926    -0.0137789             0     0.0650711             0             0      0.191161   2.13748e-15      0.168865        103958        103130        285348   3.91626e-15
    0.0015015       288.715       288.593      0.091068       14.3013      -0.67147             0       12.2607     0.0102758             0       31.9422     0.0115943             0      0.146206             0             0      0.191722   2.08572e-15      0.166428        103957        103129        285347   3.82143e-15
     0.002002       288.724        288.61     0.0942011       14.4331     -0.872979             0       12.1675     0.0143059             0       30.7908      0.037025             0      0.227562             0             0      0.192282   2.03401e-15      0.163991        103957        103129        285346   3.72669e-15
    0.0025025       288.739       288.623      0.104262       14.5998      -1.02785             0       12.0805     0.0174751             0       29.4084     0.0767827             0      0.364131             0             0      0.192814   1.99266e-15      0.161677        103956        103129        285337   3.65093e-15
     0.003003       288.755       288.635       0.11432       14.7663      -1.18218             0       11.9936     0.0206388             0       28.0279      0.116439             0      0.501006             0             0      0.193346   1.95138e-15      0.159363        103956        103129        285328    3.5753e-15
    0.0035035       288.769       288.642      0.124048        14.897      -1.24536             0        11.931     0.0228713             0       26.9691      0.139317             0      0.688469             0             0      0.193875   1.92058e-15      0.157063        103956        103129        285358   3.51886e-15
     0.004004       288.783       288.648      0.133732       15.0271       -1.3077             0       11.8684      0.025109             0       25.9132       0.16206             0      0.876283             0             0      0.194404   1.88991e-15      0.154764        103955        103128        285388   3.46266e-15
    0.0045045       288.798       288.653         0.138       15.0894       -1.2661             0       11.8095     0.0279956             0       25.2149      0.168174             0       1.10764             0             0      0.194883   1.87494e-15      0.152684        103955        103128        285401   3.43525e-15
   0.00500501       288.813       288.658      0.142178       15.1512      -1.22371             0       11.7505     0.0309004             0       24.5195      0.174166             0       1.33943             0             0       0.19536   1.86012e-15      0.150608        103955        103128        285414   3.40809e-15
   0.00550551       288.836       288.667      0.137427       15.1554      -1.10296             0       11.6812     0.0356061             0       24.1127        0.1681             0       1.61389             0             0      0.195743   1.85926e-15      0.148943        103955        103127        285439   3.40651e-15
   0.00600601       288.859       288.676      0.132614        15.159       -0.9816             0       11.6118     0.0403151             0       23.7091       0.16182             0       1.88896             0             0      0.196124   1.85855e-15      0.147287        103955        103127        285464   3.40521e-15
   0.00650651       288.893       288.687      0.122773       15.1159     -0.810905             0       11.5389     0.0452989             0       23.5637      0.137911             0       2.21445             0             0      0.196332   1.86984e-15      0.146385        103955        103126        285511    3.4259e-15
   0.00700701       288.926       288.697      0.112978       15.0721     -0.639798             0       11.4661     0.0502665             0       23.4214      0.113659             0        2.5408             0             0      0.196536   1.88138e-15      0.145495        103955        103126        285559   3.44704e-15
   0.00750751       288.966       288.704       0.10643       14.9787     -0.439716             0       11.4019      0.054088             0       23.5001     0.0652051             0       2.92731             0             0      0.196536   1.91032e-15      0.145498        103956        103126        285641   3.50007e-15
   0.00800801       289.006       288.711     0.0999384       14.8847     -0.239251             0       11.3378     0.0578862             0       23.5802     0.0165355             0        3.3149             0             0      0.196532   1.93948e-15      0.145513        103956        103125        285723    3.5535e-15
   0.00850851        289.05       288.713     0.0969444       14.7536    -0.0152456             0       11.2858     0.0602488             0       23.7514    -0.0453814             0       3.76931             0             0      0.196373    1.9822e-15      0.146205        103957        103125        285852   3.63177e-15
   0.00900901       289.093       288.715     0.0939661       14.6221      0.209442             0        11.234     0.0625771             0         23.92     -0.107118             0       4.22491             0             0       0.19621   2.02516e-15      0.146913        103958        103124        285982   3.71048e-15
   0.00950951        289.14       288.715     0.0918457       14.4696      0.471361             0       11.1941     0.0630419             0       23.9484     -0.158997             0       4.74469             0             0      0.195861   2.08114e-15      0.148433        103959        103123        286164   3.81304e-15
      0.01001       289.186       288.715     0.0897361       14.3169        0.7342             0       11.1544     0.0634606             0       23.9709     -0.210542             0       5.26558             0             0      0.195515    2.1368e-15      0.149935        103961        103123        286347   3.91502e-15
    0.0105105       289.224       288.714     0.0881529       14.1595       1.04211             0       11.1256     0.0616188             0       23.7079     -0.245706             0        5.8412             0             0      0.195357    2.1769e-15      0.150622        103963        103122        286571   3.98848e-15
     0.011011       289.261       288.713     0.0865748       14.0025       1.35071             0       11.0969     0.0597252             0       23.4385     -0.280758             0       6.41778             0             0      0.195206   2.21636e-15      0.151281        103965        103122        286794   4.06079e-15
    0.0115115       289.282        288.71     0.0852245       13.8663       1.68994             0       11.0761     0.0555309             0       22.8828     -0.310842             0       7.03763             0             0      0.195331   2.22794e-15      0.150737        103967        103121        287012   4.08201e-15
     0.012012       289.303       288.708     0.0838763        13.731       2.02921             0       11.0554     0.0512913             0       22.3209     -0.340891             0       7.65812             0             0      0.195456   2.23937e-15      0.150193        103969        103120        287231   4.10295e-15
    0.0125125       289.319       288.705     0.0826189       13.6369       2.36971             0       11.0376      0.045208             0       21.5096     -0.369536             0       8.30491             0             0       0.19558   2.24477e-15      0.149652        103972        103119        287484   4.11284e-15
     0.013013       289.334       288.702     0.0813601       13.5441       2.70954             0       11.0197     0.0391275             0       20.6913       -0.3973             0       8.95135             0             0      0.195705   2.24997e-15      0.149109        103975        103119        287737   4.12236e-15
    0.0135135       289.345         288.7     0.0800489       13.5011       3.02442             0       10.9957     0.0331524             0       19.6167     -0.392053             0       9.58524             0             0      0.195856   2.24774e-15      0.148456        103979        103118        287956   4.11829e-15
     0.014014       289.355       288.698     0.0787401       13.4594       3.33814             0       10.9711     0.0272704             0       18.5353     -0.384819             0       10.2172             0             0      0.196007   2.24522e-15      0.147795        103982        103117        288174   4.11367e-15
    0.0145145       289.357       288.698     0.0775157        13.464       3.61167             0        10.929      0.024625             0       17.2186     -0.308575             0       10.7817             0             0      0.196218   2.23245e-15      0.146879        103986        103116        288344   4.09027e-15
     0.015015        289.36       288.697     0.0763001       13.4697        3.8838             0       10.8862     0.0220975             0       15.8984     -0.230864             0       11.3434             0             0      0.196433   2.21938e-15      0.145944        103989        103116        288515   4.06632e-15
    0.0155155       289.356       288.696     0.0753678       13.5155       4.11054             0       10.8217     0.0233817             0       14.4637     -0.105697             0       11.8181             0             0      0.196791    2.1966e-15      0.144389        103993        103115        288706   4.02458e-15
     0.016016       289.352       288.696     0.0744394       13.5623       4.33584             0       10.7567     0.0246691             0       13.0303     0.0187626             0       12.2907             0             0      0.197149   2.17375e-15      0.142833        103997        103115        288895   3.98271e-15
    0.0165165       289.346       288.695     0.0736262       13.6413       4.51767             0       10.6779     0.0260569             0       11.6377      0.121834             0       12.7032             0             0      0.197518    2.1487e-15      0.141228        104000        103114        289039   3.93681e-15
     0.017017       289.339       288.694     0.0728184       13.7211       4.69809             0       10.5989     0.0273398             0       10.2511      0.222738             0       13.1138             0             0      0.197885   2.12357e-15      0.139631        104004        103114        289181   3.89077e-15
    0.0175175        289.33       288.694     0.0721647       13.8268       4.83822             0       10.5154     0.0256404             0       9.03754       0.26205             0       13.4702             0             0      0.198203   2.09619e-15      0.138248        104008        103113        289255   3.84061e-15
     0.018018       289.321       288.693     0.0715165        13.933        4.9768             0       10.4317     0.0238586             0       7.83524      0.299495             0       13.8231             0             0      0.198527   2.06808e-15      0.136842        104011        103113        289326   3.78911e-15
    0.0185185       289.303       288.693     0.0710167       14.0549        5.0741             0       10.3458       0.01987             0        6.9353      0.286934             0       14.0802             0             0      0.198996   2.02054e-15        0.1348        104015        103112        289299     3.702e-15
     0.019019       289.285       288.692     0.0705152       14.1768       5.16964             0       10.2599     0.0158337             0       6.05151      0.273162             0       14.3321             0             0      0.199476   1.97174e-15      0.132715        104018        103112        289267   3.61259e-15
    0.0195195       289.253       288.692     0.0699673       14.2995       5.22054             0       10.1733     0.0105854             0       5.57633      0.228728             0       14.4537             0             0      0.200204    1.8912e-15      0.129548        104021        103112        289123   3.46502e-15
      0.02002        289.22       288.692     0.0693976       14.4218       5.26967             0       10.0867     0.0052572             0        5.1191      0.183239             0       14.5697             0             0      0.200939   1.80988e-15      0.126353        104024        103112        288976   3.31604e-15
    0.0205205       289.179       288.694      0.068304       14.5334        5.2764             0       10.0026   -0.00198961             0       5.09243      0.112461             0       14.5517             0             0      0.201821      1.71e-15      0.122519        104027        103112        288773   3.13305e-15
     0.021021       289.138       288.696     0.0671837       14.6446        5.2819             0        9.9186   -0.00931698             0       5.08184     0.0408022             0       14.5278             0             0      0.202704   1.61029e-15       0.11868        104030        103112        288568   2.95036e-15
    0.0215215       289.097       288.698     0.0654516       14.7468       5.25918             0       9.83596     -0.018482             0       5.43807     -0.050932             0       14.3688             0             0      0.203612   1.51429e-15      0.114732        104032        103112        288326   2.77445e-15
     0.022022       289.056       288.702     0.0637089        14.849        5.2361             0       9.75317    -0.0276615             0       5.80637     -0.142973             0       14.2035             0             0      0.204518   1.41893e-15      0.110792        104035        103112        288080   2.59975e-15
    0.0225225       289.017       288.705     0.0617356       14.9521        5.2055             0       9.66692    -0.0371575             0       6.43704     -0.241672             0       13.9003             0             0      0.205383   1.33781e-15      0.107029        104037        103113        287758   2.45111e-15
     0.023023       288.978       288.709     0.0597744       15.0557       5.17533             0        9.5804    -0.0466147             0       7.07554     -0.340047             0        13.591             0             0      0.206244   1.25758e-15      0.103285        104039        103113        287433   2.30413e-15
    0.0235235       288.944       288.712     0.0580657        15.167       5.15416             0       9.48838    -0.0552678             0       7.87645     -0.431705             0        13.156             0             0      0.207011   1.19607e-15     0.0999517        104040        103114        287043   2.19142e-15
     0.024024       288.909       288.716     0.0563826       15.2787       5.13383             0       9.39622    -0.0638597             0       8.68167     -0.522378             0        12.716             0             0      0.207772   1.13546e-15     0.0966429        104042        103114        286653   2.08038e-15
    0.0245245        288.88        288.72     0.0552083       15.3976       5.13015             0       9.30132    -0.0712354             0       9.57249       -0.5935             0       12.1755             0             0      0.208421   1.09299e-15      0.093823        104044        103115        286263   2.00256e-15
     0.025025        288.85       288.723     0.0540408       15.5163       5.12728             0       9.20658    -0.0785282             0       10.4638     -0.662912             0       11.6313             0             0      0.209065   1.05111e-15     0.0910224        104045        103116        285870   1.92582e-15
    0.0255255       288.825       288.728     0.0530023       15.6328       5.13973             0        9.1149    -0.0842442             0       11.3648     -0.699832             0       11.0181             0             0      0.209625   1.02051e-15     0.0885881        104047        103116        285439   1.86976e-15
     0.026026       288.801       288.732     0.0519453       15.7483       5.15259             0       9.02371    -0.0898568             0       12.2615     -0.734659             0        10.403             0             0      0.210183    9.9012e-16     0.0861596        104049        103117        285008   1.81409e-15
    0.0265265       288.778       288.737     0.0505509        15.846        5.1731             0       8.94116    -0.0935859             0       13.0802     -0.731345             0       9.75569             0             0      0.210717   9.63607e-16     0.0838393        104050        103118        284560   1.76551e-15
     0.027027       288.756       288.743     0.0491265       15.9421       5.19358             0       8.85922    -0.0972151             0       13.8897     -0.726101             0       9.10862             0             0      0.211253   9.37073e-16     0.0815099        104052        103119        284111   1.71689e-15
    0.0275275       288.734        288.75     0.0471761       16.0095        5.2138             0       8.78786    -0.0990942             0        14.537     -0.687054             0       8.46586             0             0      0.211825   9.10185e-16     0.0790218        104054        103119        283649   1.66763e-15
     0.028028       288.712       288.757     0.0452544       16.0751       5.23371             0       8.71711     -0.100883             0       15.1695     -0.646976             0        7.8251             0             0        0.2124   8.83355e-16     0.0765231        104057        103120        283187   1.61847e-15
    0.0285285       288.689       288.765     0.0438179       16.1107       5.24853             0       8.65651     -0.101139             0       15.5542     -0.589505             0       7.21812             0             0      0.213015   8.57491e-16     0.0738464        104059        103121        282741   1.57108e-15
     0.029029       288.666       288.772     0.0424691        16.145       5.26286             0       8.59658     -0.101278             0       15.9205     -0.532447             0       6.61463             0             0      0.213629   8.31806e-16     0.0711798        104061        103121        282301   1.52402e-15
    0.0295295       288.643       288.778     0.0425444       16.1579       5.26948             0       8.54734    -0.0995235             0       15.9879     -0.482113             0       6.06766             0             0      0.214205   8.09025e-16     0.0686752        104063        103122        281961   1.48228e-15
      0.03003        288.62       288.783     0.0426578       16.1699        5.2757             0       8.49892    -0.0976266             0       16.0395     -0.432803             0        5.5253             0             0       0.21477   7.86561e-16     0.0662153        104066        103123        281628   1.44113e-15
    0.0305305       288.602       288.785     0.0433669       16.1698       5.27564             0       8.46309    -0.0935068             0        15.844     -0.399543             0       5.05501             0             0      0.215175   7.69064e-16      0.064455        104068        103123        281419   1.40907e-15
     0.031031       288.584       288.786     0.0440554        16.169       5.27525             0       8.42809    -0.0892764             0       15.6406     -0.366769             0       4.58969             0             0      0.215566   7.52078e-16     0.0627541        104071        103124        281214   1.37795e-15
    0.0315315       288.575       288.785      0.044433       16.1582       5.26987             0        8.4056    -0.0833734             0       15.3197     -0.341353             0       4.19959             0             0      0.215751   7.42804e-16      0.061952        104073        103124        281065   1.36096e-15
     0.032032       288.566       288.784     0.0447765       16.1461        5.2644             0       8.38362    -0.0774384             0       14.9989     -0.315985             0       3.81397             0             0      0.215926   7.33954e-16     0.0611902        104076        103125        280923   1.34474e-15
    0.0325325       288.564       288.782     0.0446227       16.1137       5.25775             0       8.36911    -0.0710348             0       14.6791     -0.291334             0       3.49386             0             0      0.215966   7.31294e-16     0.0610184        104079        103125        280878   1.33987e-15
     0.033033       288.561       288.779     0.0444396       16.0784        5.2516             0       8.35465    -0.0646709             0       14.3636     -0.266875             0       3.17737             0             0         0.216   7.28845e-16     0.0608682        104082        103126        280838   1.33538e-15
    0.0335335       288.562       288.775     0.0438414       16.0025       5.25272             0        8.3408    -0.0588697             0       14.1072     -0.245148             0       2.91211             0             0      0.215964   7.29375e-16     0.0610241        104085        103126        280879   1.33635e-15
     0.034034       288.562       288.771     0.0432135        15.923       5.25487             0       8.32677    -0.0531319             0       13.8551     -0.223782             0       2.64971             0             0      0.215923   7.30037e-16     0.0612037        104088        103126        280921   1.33756e-15
    0.0345345       288.562       288.766     0.0421792       15.7938       5.27098             0       8.31015    -0.0482627             0       13.6618     -0.207363             0       2.42635             0             0      0.215807   7.32508e-16     0.0617096        104092        103127        281000   1.34209e-15
     0.035035       288.563       288.761     0.0411302       15.6626       5.28734             0       8.29342    -0.0434606             0       13.4708     -0.191271             0       2.20525             0             0       0.21569   7.35103e-16      0.062216        104095        103127        281085   1.34685e-15
    0.0355355        288.56       288.754     0.0398864       15.5051       5.30688             0        8.2753    -0.0395501             0       13.3111     -0.179512             0       2.01414             0             0      0.215572   7.39344e-16     0.0627313        104099        103127        281240   1.35462e-15
     0.036036       288.556       288.747     0.0386627       15.3495       5.32437             0       8.25725    -0.0356995             0       13.1521     -0.168014             0       1.82488             0             0      0.215457   7.43878e-16     0.0632308        104102        103128        281397   1.36292e-15
    0.0365365       288.546       288.739     0.0376991       15.2179       5.31541             0        8.2402    -0.0326214             0       13.0015     -0.159877             0        1.6594             0             0      0.215389   7.52182e-16     0.0635263        104106        103128        281566   1.37814e-15
     0.037037       288.536       288.732     0.0367883        15.092       5.30152             0       8.22329    -0.0295899             0       12.8508     -0.151905             0       1.49552             0             0      0.215316   7.60899e-16     0.0638414        104110        103128        281737   1.39411e-15
    0.0375375       288.525       288.725     0.0365374       15.0362       5.22602             0       8.20829    -0.0271419             0       12.6979     -0.145985             0       1.35162             0             0      0.215187   7.74767e-16     0.0644023        104114        103128        281915   1.41952e-15
     0.038038       288.514       288.718     0.0363333       14.9877       5.14394             0       8.19338    -0.0247258             0       12.5441     -0.140003             0       1.20925             0             0      0.215019   7.89976e-16     0.0651353        104118        103128        282096   1.44738e-15
    0.0385385       288.517       288.714     0.0366976       15.0284       4.98176             0       8.17962    -0.0226974             0       12.3805     -0.133268             0       1.08554             0             0      0.214369   8.21479e-16     0.0679598        104122        103128        282303    1.5051e-15
     0.039039       288.523       288.709     0.0370822       15.0763       4.81312             0       8.16582    -0.0206817             0       12.2152     -0.126228             0      0.963341             0             0      0.213662   8.54742e-16     0.0710354        104127        103128        282511   1.56605e-15
    0.0395395       288.552       288.706     0.0377067       15.2092       4.56804             0       8.15157    -0.0188163             0       12.0299     -0.115581             0      0.858985             0             0      0.212271    9.0881e-16     0.0770794        104131        103129        282738   1.66511e-15
      0.04004       288.583       288.702     0.0383411       15.3442        4.3192             0       8.13719    -0.0169613             0        11.843     -0.104682             0      0.756102             0             0      0.210869   9.62632e-16     0.0831765        104136        103129        282968   1.76372e-15
    0.0405405       288.633         288.7     0.0390898       15.5046       4.02711             0       8.12138    -0.0152267             0       11.6371    -0.0908751             0      0.670169             0             0      0.209326   1.01363e-15     0.0898849        104140        103129        283233   1.85716e-15
     0.041041       288.686       288.698     0.0398399       15.6533        3.7395             0       8.10551    -0.0135254             0       11.4315    -0.0772369             0      0.585593             0             0      0.207735   1.06549e-15     0.0968039        104145        103129        283498   1.95218e-15
    0.0415415       288.777       288.696     0.0406053       15.6714       3.50218             0       8.08895    -0.0121963             0       11.2289    -0.0654831             0      0.516199             0             0      0.205601   1.12702e-15      0.106081        104149        103129        283764   2.06492e-15
     0.042042       288.872       288.694     0.0413564         15.67        3.2737             0       8.07243    -0.0109367             0       11.0289    -0.0542831             0      0.447846             0             0      0.203369   1.19394e-15      0.115785        104154        103129        284028   2.18753e-15
    0.0425425       289.005       288.693     0.0419521       15.4548        3.1416             0       8.05633    -0.0104352             0       10.8579     -0.049122             0      0.390839             0             0      0.200069   1.31964e-15      0.130133        104158        103129        284261   2.41783e-15
     0.043043       289.135       288.691     0.0425215       15.2328       3.00991             0       8.04021    -0.0100179             0       10.6895    -0.0444601             0      0.334565             0             0      0.196829   1.44575e-15      0.144222        104161        103129        284494   2.64889e-15
    0.0435435       289.226        288.69     0.0428108       14.9368       2.88263             0       8.02374    -0.0104942             0       10.5502     -0.045104             0      0.286088             0             0      0.194224   1.57623e-15       0.15555        104165        103129        284739   2.88795e-15
     0.044044       289.312       288.689     0.0430638         14.65       2.74912             0       8.00675    -0.0110295             0       10.4111    -0.0457862             0      0.238292             0             0      0.191774   1.70032e-15      0.166202        104168        103130        284981   3.11531e-15
    0.0445445       289.331       288.688     0.0429391       14.4591       2.55088             0       7.98436    -0.0121773             0       10.2746    -0.0468672             0      0.197551             0             0      0.190934   1.75821e-15      0.169852        104170        103130        285204   3.22137e-15
     0.045045       289.344       288.687     0.0427974        14.282       2.34731             0       7.96009    -0.0133245             0       10.1313    -0.0474914             0      0.157534             0             0      0.190177   1.81248e-15      0.173146        104173        103130        285421    3.3208e-15
    0.0455455       289.298       288.686     0.0424821       14.2446       2.08984             0       7.91683    -0.0144647             0        9.9196     -0.043497             0      0.124851             0             0      0.190246   1.83015e-15      0.172844        104174        103130        285591   3.35318e-15