#           y             T         TMean   TPrime2Mean           U_x           U_y           U_z       UMean_x       UMean_y       UMean_z UPrime2Mea... UPrime2Mea... UPrime2Mea... UPrime2Mea... UPrime2Mea... UPrime2Mea...            O2           H2O          C3H8             p         pMean   pPrime2Mean           CO2
  1.11022e-19       289.511       288.107      0.122782       34.6425  -1.28897e-14             0       20.3029  -4.78696e-16             0       24.8923  -3.29934e-15             0   2.85542e-16             0             0      0.227372   0.000253559    0.00881065        105623        103162        286527   0.000464567
  0.000500501       291.871       288.123      0.179538       34.7012     -0.181947             0       20.3046     0.0594178             0       24.9275    -0.0262149             0     0.0622681             0             0      0.224654   0.000655461     0.0164957        105600        103162        286452    0.00120093
     0.001001       294.261        288.14       0.24225       34.7602     -0.364013             0       20.3064      0.118835             0       24.9628    -0.0524235             0       0.12468             0             0      0.221924    0.00106032     0.0242015        105577        103162        286377    0.00194271
    0.0015015       311.698       288.269       3.27678       34.9673     -0.605453             0       20.3134      0.178019             0       25.0987    -0.0755102             0      0.258981             0             0      0.213313    0.00294186     0.0423087        105534        103162        286224    0.00539004
     0.002002       329.389         288.4       6.67022       35.1767     -0.846315             0       20.3204      0.237207             0       25.2353    -0.0985706             0      0.393712             0             0      0.204677    0.00483731     0.0603815        105491        103162        286070    0.00886285
    0.0025025       410.395       288.984       99.4356       35.9793     -0.943433             0       20.3351       0.29718             0       25.5706     -0.115081             0      0.635637             0             0      0.189841     0.0101951     0.0698915        105476        103162        285793     0.0186794
     0.003003       493.228       289.578       208.216       36.7886      -1.03835             0       20.3499      0.357153             0       25.9097     -0.131395             0      0.878441             0             0      0.174805     0.0156524     0.0792511        105462        103161        285516     0.0286781
    0.0035035       878.817       292.065       2970.19       38.7252     -0.768592             0       20.3985      0.417178             0       26.8895     -0.115014             0       1.26693             0             0      0.126601     0.0375867     0.0636933        105461        103161        285253     0.0688658
     0.004004       1263.88       294.553       5735.07       40.6643      -0.49834             0       20.4472      0.477239             0       27.8762    -0.0986482             0       1.65687             0             0     0.0784695     0.0594924     0.0481148        105460        103161        284989      0.109001
    0.0045045       1583.54       297.195       8859.01       42.9178     -0.166744             0       20.5142      0.541581             0       29.7392    -0.0841445             0       2.22746             0             0     0.0393045     0.0778516     0.0299705        105446        103160        284583      0.142639
   0.00500501          1900       299.821       11958.7       45.1664      0.160529             0       20.5807      0.605876             0       31.5989     -0.070339             0       2.79882             0             0   0.000530571     0.0960308     0.0119729        105432        103159        284178      0.175946
   0.00550551       1899.54       300.836       12654.9       46.9424     0.0598219             0       20.5932      0.665577             0       33.1405     -0.125648             0       3.44695             0             0   0.000481006     0.0963925    0.00849189        105413        103159        283820      0.176609
   0.00600601       1898.95       301.845       13344.2       48.7178     -0.037712             0       20.6041      0.725376             0       34.6679     -0.178603             0       4.09464             0             0   0.000429873      0.096742    0.00514205        105394        103158        283462      0.177249
   0.00650651       1886.84       302.384       13460.7       50.4431      0.126024             0       20.4859      0.793307             0       35.0307    -0.0376237             0       4.70633             0             0   0.000249614     0.0960917     0.0125899        105374        103157        283150      0.176058
   0.00700701       1874.33       302.916       13568.4       52.1559      0.283776             0       20.3655      0.861337             0       35.3833      0.107918             0        5.3175             0             0   7.13752e-05     0.0954203     0.0202467        105355        103156        282837      0.174828
   0.00750751          1833       303.034       13056.7       52.9923      0.020135             0       20.0852      0.936338             0       35.0194      0.574838             0       5.89234             0             0   3.54704e-05     0.0932551     0.0426252        105341        103156        282538      0.170861
   0.00800801       1791.45       303.152       12545.9       53.8149     -0.243513             0       19.8027       1.01128             0       34.6501       1.04377             0        6.4666             0             0   1.39027e-07     0.0910786     0.0651182        105327        103155        282236      0.166873
   0.00850851       1736.26       303.283       12090.6       53.7968     -0.507572             0        19.379       1.08267             0       33.9486       1.63627             0       7.00505             0             0   6.89721e-08     0.0882015     0.0946514        105321        103154        281757      0.161602
   0.00900901       1681.35       303.451       11705.5       53.7716     -0.771431             0       18.9538       1.15367             0       33.2497        2.2251             0       7.54539             0             0   1.76207e-10     0.0853319      0.124107        105315        103153        281278      0.156344
   0.00950951       1640.77       305.694       15146.8       53.3593       -1.0243             0       18.4483       1.20318             0       32.6949       2.61405             0       8.18864             0             0   8.73231e-11     0.0828751      0.149325        105319        103153        280808      0.151843
      0.01001       1600.76       307.922       18565.6       52.9392      -1.27363             0       17.9432       1.25241             0       32.1623       2.99952             0       8.83652             0             0   2.14516e-13     0.0804416      0.174305        105324        103152        280336      0.147384
    0.0105105       1588.28       309.379       20879.9       52.1342      -1.34903             0       17.4516       1.28838             0        32.712       3.21422             0       9.71085             0             0   1.06214e-13     0.0791477      0.187581        105338        103151        279801      0.145013
     0.011011       1576.64       310.788       23110.7         51.33      -1.42309             0       16.9607       1.32383             0       33.3001       3.41939             0       10.5859             0             0   2.90726e-16     0.0778885      0.200502        105351        103150        279268      0.142706
    0.0115115       1602.48       310.008       21634.5       50.5607      -1.43713             0       16.4962       1.33617             0       35.5939       3.20066             0       11.4933             0             0   1.43756e-16      0.078168      0.197621        105365        103148        278879      0.143218
     0.012012       1628.95       309.241       20189.6       49.8064      -1.44941             0       16.0315       1.34845             0       37.9231       2.98096             0       12.4014             0             0    3.1016e-19     0.0784764      0.194444        105379        103147        278499      0.143783
    0.0125125       1680.86       309.016       20016.5       49.6572      -1.39006             0       15.5623         1.358             0       41.6932       2.72178             0       13.3379             0             0   1.54149e-19     0.0799596      0.179206        105384        103146        278511      0.146501
     0.013013       1732.54       308.799       19857.6       49.5164      -1.33015             0       15.0948       1.36714             0        45.468       2.45805             0       14.2798             0             0   3.95619e-21     0.0814459      0.163936        105389        103144        278529      0.149224
    0.0135135       1775.56       308.853       20232.8       49.6861      -1.24902             0       14.6882        1.3606             0       49.4189       2.02426             0       15.4234             0             0   7.16893e-20     0.0830498      0.147467        105383        103142        278758      0.152163
     0.014014       1818.13       308.913       20615.8       49.8449      -1.16445             0       14.2844       1.35351             0       53.3485       1.58464             0       16.5744             0             0   4.34185e-19     0.0846491      0.131046        105377        103141        278994      0.155093
    0.0145145       1845.16       309.184       21269.7       49.6267     -0.960626             0       13.9785       1.32714             0         56.54      0.942285             0       17.9851             0             0   1.10291e-17     0.0860869      0.116289        105363        103139        279488      0.157727
     0.015015       1871.78        309.45         21922       49.3954      -0.75722             0       13.6738       1.30094             0       59.7031      0.304177             0       19.3984             0             0   4.52799e-17     0.0875225      0.101555        105349        103136        279987      0.160358
    0.0155155       1885.24       309.615       22523.2       48.7429     -0.567361             0       13.4057        1.2803             0       61.9458     -0.196707             0       20.8967             0             0   8.44402e-16     0.0888853     0.0875684        105337        103134        280676      0.162854
     0.016016       1898.28       309.773       23117.1       48.0931     -0.381085             0       13.1379       1.26022             0       64.1545     -0.694332             0       22.3932             0             0   4.40371e-15      0.090233     0.0737372        105325        103132        281374      0.165324
    0.0165165       1899.07       309.745         23495       47.5249      -0.30319             0       12.8816       1.25689             0       65.3352      -1.09341             0       23.8366             0             0   9.14587e-14     0.0911232      0.064597        105321        103130        282336      0.166955
     0.017017       1899.84       309.714       23867.6       46.9781     -0.224249             0       12.6257       1.25431             0        66.487       -1.4906             0       25.2799             0             0   4.60678e-13     0.0920001     0.0555939        105318        103128        283301      0.168561
    0.0175175       1899.86       309.574       24093.3       47.0383     -0.115577             0       12.3834       1.27328             0       66.8186      -1.83405             0       26.7185             0             0   8.84667e-12     0.0924977     0.0504858        105326        103127        284367      0.169473
     0.018018       1899.89       309.429       24310.6       47.1045   -0.00875817             0        12.141       1.29307             0       67.1203      -2.17877             0       28.1581             0             0   3.82226e-11     0.0929884      0.045449        105335        103125        285438      0.170372
    0.0185185       1899.92       309.165       24302.1       47.3306     0.0484566             0       11.8959       1.33483             0       66.6206       -2.5572             0       29.6226             0             0   6.29662e-10     0.0932937     0.0423178        105347        103123        286604      0.170931
     0.019019       1899.95       308.897         24284       47.5427      0.114972             0       11.6501       1.37753             0       66.0836      -2.93167             0       31.0877             0             0   1.99332e-09     0.0935951     0.0392272        105358        103122        287768      0.171484
    0.0195195       1899.97       308.515       24022.3       47.4009      0.416936             0       11.3872       1.44403             0       64.6027      -3.20581             0       32.5662             0             0   2.29062e-08     0.0937962     0.0371642        105371        103120        288896      0.171852
      0.02002       1899.99       308.127       23749.6       47.2613       0.72414             0        11.124       1.51164             0       63.0976      -3.47351             0       34.0442             0             0   6.63379e-08     0.0939957     0.0351178        105383        103118        290017      0.172218
    0.0205205       1899.99       307.619       23212.8       47.1755        1.1571             0        10.854        1.6056             0       61.0121      -3.58668             0       35.5122             0             0    6.5022e-07     0.0941558     0.0334726        105375        103116        290991      0.172511
     0.021021       1899.99       307.099       22654.9       47.0677       1.61059             0       10.5845       1.70088             0       58.9136      -3.68689             0       36.9801             0             0   1.80587e-06     0.0943142     0.0318422        105366        103115        291965      0.172801
    0.0215215       1899.98        306.33         21617       46.4573       2.53241             0       10.3285       1.82604             0       56.5201       -3.4914             0       38.4458             0             0   1.60032e-05     0.0944339     0.0305531        105346        103114        292956      0.173021
     0.022022       1899.97       305.549       20553.3         45.87        3.4455             0       10.0743       1.95246             0       54.1354      -3.28467             0       39.9116             0             0   4.02584e-05     0.0945474     0.0292841        105325        103112        293936      0.173228
    0.0225225       1899.98       304.502       18927.8       45.7811        4.1689             0       9.85973       2.10611             0       51.9423       -2.8335             0       41.3776             0             0   0.000283044     0.0945254     0.0284547        105279        103111        294690      0.173188
     0.023023       1899.81       303.446       17280.9       45.6674       4.92292             0         9.647       2.26086             0       49.7381      -2.37221             0       42.8465             0             0   0.000788521     0.0943842     0.0277071        105232        103110        295439       0.17293
    0.0235235       1896.12       302.207       15188.2        45.036       6.31204             0       9.47335       2.43861             0       47.3027      -1.70083             0       44.3761             0             0    0.00674197     0.0917704     0.0286552        105180        103110        296066       0.16814
     0.024024       1885.96       300.943         13051       44.2743       7.80456             0       9.30062       2.61752             0       44.8285      -1.01808             0        45.912             0             0     0.0135657     0.0887646     0.0298426        105131        103109        296693      0.162633
    0.0245245       1747.62       299.206       10031.2       40.9284        11.348             0       9.14612       2.81969             0        41.583      -0.10967             0       47.5723             0             0     0.0376503     0.0779854     0.0357777        105141        103108        297309      0.142884
     0.025025       1600.76       297.472       7038.19       37.5979        14.851             0       8.99276       3.02267             0       38.3619      0.806958             0       49.2302             0             0      0.062456     0.0668813     0.0419125        105153        103108        297887      0.122539
    0.0255255       1291.82        295.82       4553.91       34.5605       17.5867             0       8.86102       3.24106             0       35.6031       1.87969             0       50.8444             0             0      0.100964     0.0496039     0.0518435        105175        103108        297724     0.0908836
     0.026026       987.253       294.211       2161.56       31.5924       20.2165             0       8.73048        3.4601             0       32.8985       2.96459             0       52.4508             0             0      0.138802     0.0326295     0.0615788        105200        103107        297535     0.0597833
    0.0265265       762.235       293.392       1445.19       29.8884       20.9171             0       8.62162       3.69095             0        31.183       4.27145             0       53.9153             0             0      0.164422     0.0211776     0.0677439        105247        103107        296895     0.0388014
     0.027027        545.64       292.597       760.138       28.2041       21.5963             0       8.51307       3.92241             0       29.5182       5.59526             0       55.3772             0             0      0.189063     0.0101674     0.0736301        105296        103107        296238     0.0186285
    0.0275275       476.606       292.214       623.766       26.8667       21.8992             0        8.4101       4.16461             0       28.7408       7.21608             0       56.7953             0             0      0.196567    0.00689215     0.0746271        105370        103107        295287     0.0126277
     0.028028       410.055       291.839       491.457       25.5403       22.1908             0       8.30656       4.40706             0       28.0125       8.85006             0       58.2046             0             0      0.203812    0.00373414     0.0755455        105441        103107        294314    0.00684164
    0.0285285       385.356       291.594       427.658       24.4011       22.2913             0       8.19362       4.65383             0       28.1116       10.7057             0       59.4662             0             0      0.206697    0.00255186     0.0751376        105477        103108        292995    0.00467548
     0.029029       361.669       291.354       365.231       23.2781       22.3732             0       8.07971       4.90056             0       28.2455       12.5621             0       60.7104             0             0       0.20949    0.00141158     0.0746989        105509        103108        291669    0.00258628
    0.0295295       354.408       291.176       325.097       22.4201       22.1546             0       7.94987       5.14643             0       28.9445       14.4287             0       61.6725             0             0      0.210787   0.000953591     0.0737605        105484        103108        290231    0.00174716
      0.03003       347.547           291       285.661       21.5709       21.9382             0       7.81934       5.39213             0       29.6653       16.2828             0       62.6153             0             0      0.212039   0.000512727     0.0728407        105456        103109        288794   0.000939412
    0.0305305       346.949       290.856       257.151       20.8595       21.7569             0       7.67799       5.63504             0       30.7269       17.9399             0       63.2559             0             0      0.212591   0.000340166     0.0722119        105372        103110        287368   0.000623248
     0.031031       346.426       290.712       229.087       20.1569       21.5878             0       7.53631       5.87759             0       31.8039       19.5759             0       63.8805             0             0       0.21312   0.000175757     0.0715993        105288        103111        285949    0.00032202
    0.0315315       347.043       290.586       207.773       19.5873       21.6023             0       7.38972       6.11452             0        33.115       20.8935             0       64.2659             0             0      0.213301   0.000134681     0.0712332        105197        103112        284627    0.00024676
     0.032032       347.647       290.461       186.823       19.0153       21.6323             0       7.24284       6.35064             0       34.4407       22.1866             0        64.638             0             0      0.213477   9.54915e-05     0.0708747        105109        103113        283321   0.000174958
    0.0325325       348.049       290.353       171.196        18.408       21.8896             0       7.09159       6.57485             0       35.9801        23.119             0       64.8177             0             0      0.213561   8.39015e-05     0.0706276        105053        103115        282247   0.000153723
     0.033033        348.44       290.246       155.916       17.7844       22.1661             0       6.93981       6.79756             0       37.5307       24.0237             0       64.9824             0             0      0.213638   7.37297e-05      0.070399        105000        103116        281188   0.000135087
    0.0335335        348.67       290.163       145.553       16.9285       22.7148             0       6.78057       6.99888             0       39.2417       24.5378             0       64.9343             0             0      0.213607   8.36269e-05     0.0704326        104987        103118        280348    0.00015322
     0.034034       348.904       290.082       135.435       16.0446       23.2726             0       6.62043       7.19783             0       40.9558       25.0201             0       64.8646             0             0      0.213554   9.56584e-05     0.0705423        104977        103120        279528   0.000175264
    0.0345345       349.179        290.02        128.67       14.7747       23.9559             0       6.44794       7.36431             0       42.7121       25.0653             0       64.4988             0             0      0.213191   0.000136943     0.0716965        105000        103122        278976   0.000250905
     0.035035       349.479       289.958        122.03       13.4753       24.6338             0       6.27393       7.52745             0       44.4632       25.0758             0       64.1041             0             0      0.212798    0.00018063      0.072958        105024        103124        278447   0.000330947
    0.0355355       350.107       289.906       117.036       11.7824       25.2391             0       6.07971       7.64624             0       46.1457       24.6252             0        63.327             0             0      0.212002   0.000256238     0.0756458        105064        103127        278211   0.000469476
     0.036036       350.826       289.854       112.074       10.0826        25.817             0       5.88315       7.76082             0       47.8187       24.1399             0       62.5153             0             0      0.211154   0.000335986     0.0785177        105105        103129        277995    0.00061559
    0.0365365       352.727       289.803       107.513       8.29295       26.0414             0       5.65652       7.82095             0       49.3692       23.2071             0       61.2562             0             0      0.209633   0.000469089     0.0837631        105153        103133        278039   0.000859458
     0.037037       354.849       289.752       102.912       6.52903       26.2223             0       5.42686       7.87629             0       50.9084       22.2419             0       59.9593             0             0         0.208   0.000606559     0.0894573        105201        103136        278099    0.00111133
    0.0375375       359.743       289.694        97.816       5.08739       25.8592             0       5.15942       7.87156             0       52.3058       20.8697             0       58.1892             0             0      0.204944   0.000798689      0.100768        105245        103139        278365    0.00146335
     0.038038       364.743       289.634       92.6005       3.65705       25.4694             0       4.88842       7.86187             0        53.695       19.4726             0       56.3814             0             0      0.201843   0.000985803      0.112332        105289        103143        278648    0.00180617
    0.0385385       371.028       289.561       85.9287       2.36398       24.7555             0       4.57403       7.79187             0       54.9846        17.773             0       54.1147             0             0      0.198176    0.00111192      0.126977        105322        103147        279134    0.00203724
     0.039039       377.063       289.486       79.1093       1.05883       24.0288             0         4.256       7.71689             0       56.2695       16.0609             0       51.8149             0             0      0.194591    0.00122687      0.141378        105354        103151        279637    0.00224785
    0.0395395       380.139       289.396       70.5456     -0.389099       23.1514             0       3.89502       7.58307             0       57.4988       14.1998             0       49.1229             0             0      0.191983    0.00120987      0.152887        105370        103155        280337    0.00221671
      0.04004       382.767       289.306       61.9309      -1.82963       22.2512             0       3.53161       7.44415             0       58.7083       12.3325             0       46.4096             0             0      0.189374    0.00118484      0.164485        105386        103160        281052    0.00217085
    0.0405405       380.256       289.209       52.7282      -3.18517       21.0893             0       3.14021       7.24658             0         59.69       10.3944             0       43.4508             0             0      0.186747    0.00106734      0.177109        105384        103165        281937    0.00195557
     0.041041       377.248       289.112       43.6481      -4.48595        19.914             0       2.74859       7.04395             0       60.6182        8.4508             0         40.48             0             0      0.183935   0.000943822      0.190597        105381        103170        282830    0.00172926
    0.0415415       368.672       289.022         35.94      -5.17379       18.5885             0       2.35446       6.78459             0       60.9471       6.44685             0       37.3756             0             0      0.179059   0.000752914      0.213753        105359        103175        283810    0.00137948
     0.042042       360.062       288.933       28.4507      -5.78003       17.2584             0       1.96162       6.52057             0       61.2133       4.44498             0        34.265             0             0      0.174204   0.000563161      0.236803        105337        103180        284794    0.00103182
    0.0425425       351.089       288.859       23.3463      -5.49639       15.8772             0       1.58293        6.2058             0       60.7964       2.46558             0       31.0876             0             0      0.169582   0.000386004      0.258709        105303        103185        285831   0.000707231
     0.043043         342.5       288.786       18.3751      -5.13069       14.4817             0       1.20516       5.88749             0       60.3582      0.501132             0       27.9148             0             0       0.16527   0.000217491       0.27918        105268        103190        286873   0.000398484
    0.0435435       337.995       288.726       14.8197      -3.89282       12.9331             0      0.837351       5.53154             0       59.6948      -1.30448             0       24.7903             0             0      0.164248   0.000140848      0.284407        105235        103195        287978    0.00025806
     0.044044       333.524       288.666       11.3253       -2.6144       11.3819             0      0.471408       5.17262             0       59.0142      -3.07147             0       21.6839             0             0      0.163593   6.92333e-05      0.287986        105204        103200        289082   0.000126848
    0.0445445       329.404       288.614       8.46275     -0.915751       9.80414             0      0.124832       4.78284             0       58.1546      -4.43815             0       18.7647             0             0      0.166745   4.97221e-05      0.274479        105184        103205        290177   9.11002e-05
     0.045045       325.026       288.563       5.68816      0.706409        8.2567             0     -0.217142       4.38964             0        57.235      -5.73762             0        15.872             0             0      0.170357   3.10895e-05      0.258964        105167        103210        291266   5.69617e-05
    0.0455455        318.04       288.516       3.80237       1.55519       7.01615             0     -0.512582       3.96188             0       55.7093      -6.35749             0        13.247             0             0      0.178619   2.13393e-05      0.223144        105170        103214        292308   3.90975e-05