#           y             T         TMean   TPrime2Mean           U_x           U_y           U_z       UMean_x       UMean_y       UMean_z UPrime2Mea... UPrime2Mea... UPrime2Mea... UPrime2Mea... UPrime2Mea... UPrime2Mea...            O2           H2O          C3H8             p         pMean   pPrime2Mean           CO2
  1.11022e-19       289.118       288.035     0.0930815       28.9724  -3.53823e-15             0       22.9666  -4.14975e-16             0        12.923  -2.41303e-16             0   1.19359e-16             0             0      0.229992   1.06937e-07   3.25129e-05        105701        103132        283979   1.95929e-07
  0.000500501       289.167       288.042      0.108033       28.9235    -0.0288359             0       22.9666    0.00883518             0       12.9297     -0.166938             0     0.0355166             0             0      0.229975   4.10908e-07    0.00010538        105714        103132        283995   7.52861e-07
     0.001001       289.217       288.049      0.125387       28.8748    -0.0576397             0       22.9666     0.0176685             0       12.9365     -0.333899             0      0.071175             0             0      0.229957   7.20881e-07   0.000178995        105727        103132        284010   1.32079e-06
    0.0015015       289.796       288.134       1.34153       28.9164    -0.0704028             0       22.9705     0.0255505             0       13.0055     -0.512571             0      0.177567             0             0      0.229847   4.02577e-06   0.000625259        105741        103132        283789   7.37596e-06
     0.002002       290.389       288.219       2.64884       28.9574    -0.0829348             0       22.9744     0.0334324             0       13.0748     -0.691217             0      0.284414             0             0      0.229735     7.442e-06    0.00107617        105755        103132        283570   1.36351e-05
    0.0025025       294.296       288.681       26.6571       28.8357    -0.0379446             0       22.9778     0.0412591             0       13.2041     -0.863176             0      0.504557             0             0      0.229292   3.85819e-05    0.00268424        105758        103132        283780   7.06892e-05
     0.003003       298.262       289.147       51.4206       28.7158    0.00730537             0       22.9814     0.0490756             0        13.335      -1.03569             0      0.726252             0             0      0.228843   7.11861e-05    0.00430021        105761        103131        283989   0.000130426
    0.0035035       311.896       290.485       201.288       28.8875     0.0955838             0       23.0103     0.0551829             0       13.7111      -1.30031             0       1.20501             0             0      0.227521   0.000346384    0.00722422        105742        103130        283999   0.000634641
     0.004004       325.823       291.843       370.205       29.0521      0.184094             0       23.0393     0.0613518             0       14.0887      -1.56521             0       1.68597             0             0      0.226161   0.000637248     0.0101497        105723        103130        284020    0.00116756
    0.0045045        376.21       295.813       2901.23       28.3281      0.301345             0        23.091     0.0751621             0       14.6549      -1.86489             0       2.43948             0             0      0.220174    0.00287061     0.0132561        105707        103129        285303     0.0052595
   0.00500501       428.876       299.857       5569.01        27.626      0.437931             0        23.144     0.0897591             0        15.232      -2.15527             0       3.20286             0             0      0.213974    0.00520025     0.0162984        105691        103128        286571    0.00952784
   0.00550551       707.136       311.159       21775.2       29.0969       2.48856             0       23.3173      0.182232             0       16.9005      -1.52381             0       4.94353             0             0      0.186729     0.0170612     0.0130027        105681        103126        286320     0.0312592
   0.00600601       985.873       322.434       37961.5       30.5744       4.54068             0       23.4891      0.274156             0       18.5606     -0.904411             0       6.67476             0             0      0.159356     0.0289776    0.00968905        105671        103125        286053     0.0530923
   0.00650651       1303.83       331.557       52504.7       32.5907       6.71619             0       23.5446      0.320798             0       19.5308      -1.27776             0       7.62931             0             0      0.121534      0.045464    0.00489762        105663        103123        284431     0.0832985
   0.00700701       1618.89       340.568         66850        34.589       8.85398             0        23.595      0.366401             0       20.4874      -1.65851             0       8.56605             0             0     0.0838467     0.0618857   0.000184052        105655        103121        282834      0.113386
   0.00750751       1729.54       341.687       67256.7       35.3199       8.33455             0       23.2755      0.338856             0       20.4874      -2.56023             0        8.2483             0             0     0.0556654     0.0737469   0.000954372        105663        103120        282932      0.135118
   0.00800801       1838.88         342.8       67649.5       36.0606       7.81937             0       22.9484      0.312027             0       20.5021      -3.44351             0       7.93865             0             0     0.0277225     0.0855019    0.00177828        105672        103119        283021      0.156655
   0.00850851       1867.88       343.541       67182.4       37.4129       7.56484             0        22.159      0.329275             0        21.425      -3.19277             0       8.12785             0             0      0.014443      0.090725    0.00589811        105677        103118        282581      0.166225
   0.00900901       1896.13       344.298         66733       38.7528       7.31421             0       21.3612       0.34649             0       22.3534       -2.9398             0       8.31187             0             0     0.0013901     0.0958433     0.0101089        105682        103117        282142      0.175603
   0.00950951       1883.82       345.892       67249.9       39.4201       7.27571             0       20.1097       0.36194             0       23.5886      -2.56467             0       8.21411             0             0   0.000694053     0.0952447     0.0192809        105687        103117        281695      0.174506
      0.01001       1871.36       347.511       67817.4        40.077       7.23592             0       18.8584      0.377089             0       24.8529      -2.18257             0       8.11338             0             0   1.18122e-05     0.0946369     0.0284865        105691        103117        281244      0.173392
    0.0105105       1851.97       350.305       70868.7       40.2252       7.13254             0       17.6152      0.377514             0       27.5436       -1.4586             0       7.86742             0             0    5.8851e-06     0.0935818     0.0393428        105696        103117        280586      0.171459
     0.011011       1832.52       353.058       73853.1       40.3541       7.03198             0       16.3819      0.376639             0       30.2331     -0.753184             0       7.62741             0             0   8.74297e-08     0.0925245     0.0502222        105700        103118        279929      0.169522
    0.0115115        1810.6       353.982       73868.5       39.6279       7.05707             0        15.591      0.317979             0       32.8666     -0.872759             0       7.65163             0             0   4.33758e-08     0.0913643       0.06213        105704        103117        279331      0.167396
     0.012012        1788.7       354.849       73778.1       38.8965       7.08339             0       14.8114      0.259042             0       35.4751      -1.01505             0       7.68351             0             0   3.74693e-10     0.0902024      0.074056        105708        103117        278734      0.165268
    0.0125125       1768.15       353.348       69381.7       37.9569       7.15956             0       14.4945      0.188861             0        37.064      -2.08104             0       8.02637             0             0    1.8569e-10     0.0889685     0.0867205        105714        103117        278189      0.163007
     0.013013       1747.77        351.83       64982.8       37.0221       7.23639             0       14.1851      0.118708             0       38.6401      -3.14794             0        8.3796             0             0   1.58045e-12     0.0877372     0.0993584        105721        103116        277647      0.160751
    0.0135135        1733.8       349.669       60493.7       36.2691       7.33819             0       14.1516     0.0496426             0       39.7369      -4.24877             0       9.12122             0             0   7.82475e-13     0.0866032      0.110997        105728        103115        277202      0.158673
     0.014014       1720.06       347.454       55971.4       35.5316       7.43541             0       14.1249    -0.0189412             0       40.8169      -5.34535             0       9.87348             0             0    6.7459e-15     0.0854665      0.122664        105735        103114        276758      0.156591
    0.0145145       1714.02       343.348         50297        35.334       7.37383             0        14.332    -0.0707883             0        41.318       -6.2946             0       10.9951             0             0    3.3485e-15     0.0842347      0.135306        105745        103112        276390      0.154334
     0.015015       1708.14       339.218       44631.7        35.133       7.31007             0       14.5464     -0.122574             0       41.8236      -7.23865             0       12.1297             0             0   4.11626e-16     0.0830036      0.147941        105756        103110        276024      0.152078
    0.0155155       1707.72       334.313         39262        34.821       7.17601             0       14.9931     -0.172377             0        42.479      -8.01439             0       13.6858             0             0   1.23649e-14     0.0817926      0.160372        105767        103107        275740      0.149859
     0.016016       1707.08       329.432         33932       34.4886        7.0366             0       15.4475     -0.221552             0       43.1438      -8.77437             0       15.2485             0             0   3.95804e-13     0.0805797      0.172823        105778        103105        275466      0.147637
    0.0165165       1700.06       325.295       29801.3       33.5418       6.73546             0       16.1374     -0.251709             0       44.0931      -9.05754             0       17.0104             0             0   1.20167e-11     0.0793088      0.185874        105788        103101        275532      0.145308
     0.017017       1692.05       321.164       25673.2       32.5676       6.42355             0       16.8355      -0.28009             0       45.0593      -9.29449             0       18.7743             0             0   3.86142e-10     0.0780006      0.199307        105798        103098        275619      0.142912
    0.0175175       1656.16       317.179       21620.1       30.8152       5.80573             0       17.7682     -0.258025             0       46.5059      -8.21842             0       20.5944             0             0   1.10597e-08     0.0756314      0.223638        105806        103094        276276      0.138571
     0.018018       1618.36       313.194       17574.9       29.0556       5.18182             0       18.6962     -0.234469             0       47.9636      -7.10479             0        22.417             0             0   3.59367e-07     0.0731787      0.248826        105813        103090        276957      0.134077
    0.0185185       1529.66       309.211       13741.8       27.1051        4.3948             0       19.4982     -0.170998             0       49.7157      -4.98573             0       24.3045             0             0   9.74877e-06     0.0684873      0.296956        105816        103086        278262      0.125482
     0.019019       1438.88       305.239       9941.21       25.1575       3.60153             0       20.2849     -0.108587             0       51.4337      -2.86852             0       26.1963             0             0   0.000133442     0.0637034      0.345539        105818        103081        279593      0.116716
    0.0195195       1295.32       301.519       6962.75       23.2861       2.65009             0       20.6871    -0.0729871             0       52.2887     -0.798118             0       28.1975             0             0    0.00315083     0.0565754      0.405594        105817        103076        281576      0.103657
      0.02002       1149.81       297.842       4039.95       21.4054       1.71263             0       21.0787    -0.0383935             0       53.0569       1.25837             0       30.2117             0             0    0.00672732     0.0493256       0.46447        105815        103071        283581     0.0903737
    0.0205205        957.65       295.193       2452.81       19.3017       1.11042             0       21.2162    -0.0279564             0       51.7429       2.98094             0       32.5375             0             0     0.0237224     0.0391497      0.495027        105811        103066        286117     0.0717296
     0.021021           767       292.605       915.893       17.2302      0.518284             0       21.3454    -0.0184894             0       50.3579       4.68672             0       34.8738             0             0     0.0413727     0.0290137      0.522326        105807        103061        288661     0.0531585
    0.0215215       610.756       291.391       524.374       15.8945      0.155984             0       21.2842    -0.0311525             0       47.3557       6.00979             0       37.4486             0             0      0.073967     0.0197859      0.475322        105793        103055        291378     0.0362514
     0.022022       458.554       290.208       147.635       14.6103     -0.220245             0       21.2125    -0.0453485             0       44.3334       7.31308             0       40.0278             0             0      0.106468      0.010784      0.426406        105780        103050        294104     0.0197583
    0.0225225       394.164       289.701       92.0231       14.4426     -0.899082             0       20.9127    -0.0928509             0       40.8732       8.18652             0       42.7019             0             0      0.136933     0.0066917      0.335946        105769        103044        297019     0.0122604
     0.023023       331.892       289.206       38.3655       14.2674      -1.56345             0       20.6004     -0.142371             0       37.4536       9.03728             0       45.3772             0             0      0.166702    0.00273558      0.247118        105760        103038        299944     0.0050121
    0.0235235       313.564       288.959       25.2384       13.9367      -1.92779             0       20.0292     -0.233737             0       34.8752       9.41754             0       48.0776             0             0      0.182018    0.00160379      0.192148        105771        103033        303074    0.00293844
     0.024024       295.972       288.718       12.5172       13.5884      -2.27924             0        19.454     -0.327188             0       32.3758       9.78873             0       50.7805             0             0      0.196764   0.000516084      0.139199        105782        103028        306216   0.000945563
    0.0245245       292.967       288.593       7.84475       12.8925      -2.37491             0       18.7978     -0.461968             0       31.4425          9.98             0        53.533             0             0      0.200225   0.000302929      0.126343        105798        103023        309601   0.000555023
     0.025025       290.087       288.471       3.33983        12.198      -2.47258             0       18.1465     -0.597886             0       30.5351       10.1784             0       56.2917             0             0      0.203433   9.85058e-05      0.114495        105813        103018        312996   0.000180481
    0.0255255        289.56       288.413       2.01695       11.5289      -2.60834             0       17.5848     -0.755408             0       30.1196       10.5117             0       59.1693             0             0      0.201846   5.99779e-05      0.121792        105810        103012        316587   0.000109891
     0.026026       289.054       288.357      0.748937       10.8695      -2.75501             0       17.0239     -0.913986             0       29.6769       10.8415             0       62.0491             0             0      0.200208   2.29416e-05      0.129297        105806        103007        320182   4.20333e-05
    0.0265265       288.925       288.334      0.481188       10.3875      -3.10052             0       16.4795      -1.09181             0       28.7396       11.1087             0       64.9712             0             0      0.197634   1.30986e-05      0.140587        105783        103001        323852   2.39992e-05
     0.027027       288.802       288.311      0.225272       9.92141      -3.45811             0       15.9297      -1.27107             0        27.788       11.3594             0       67.8916             0             0      0.195137   3.70182e-06      0.151543        105761        102994        327520   6.78242e-06
    0.0275275       288.783       288.303      0.176658       9.73632      -4.02732             0       15.2853      -1.47528             0       26.5866        11.321             0       70.7848             0             0      0.193967   2.12032e-06      0.156644        105742        102988        331145   3.88482e-06
     0.028028       288.767       288.295      0.130329       9.56517      -4.59946             0       14.6358      -1.68069             0       25.3964       11.2698             0       73.6658             0             0      0.192858   6.14848e-07      0.161482        105726        102981        334757   1.12652e-06
    0.0285285       288.773        288.29      0.122536       9.62913      -5.22089             0       13.9027      -1.90616             0       24.3941       11.0015             0       76.3413             0             0       0.19277   3.91027e-07      0.161866        105734        102974        338157   7.16434e-07
     0.029029        288.78       288.286      0.115317        9.6957      -5.83691             0       13.1655      -2.13216             0       23.4208       10.7308             0       78.9883             0             0       0.19271      1.77e-07      0.162131        105743        102967        341518   3.24298e-07
    0.0295295       288.791       288.279      0.117425       9.80455      -6.36514             0       12.3603       -2.3666             0       22.9179       10.4189             0        81.172             0             0        0.1931   1.22065e-07      0.160434        105770        102960        344260   2.23645e-07
      0.03003       288.803       288.272      0.119627        9.9117      -6.88629             0       11.5512      -2.60103             0        22.457       10.1169             0       83.3112             0             0      0.193514   6.91908e-08      0.158634        105797        102953        346947    1.2677e-07
    0.0305305       288.805       288.267      0.123319        9.9922      -7.29662             0       10.6815      -2.83527             0        22.654       9.96946             0       84.7529             0             0        0.1943   4.86144e-08      0.155219        105821        102946        348779   8.90707e-08
     0.031031       288.807       288.262      0.126839       10.0694      -7.70045             0       9.80752      -3.06853             0       22.9009       9.83794             0       86.1445             0             0      0.195099   2.88089e-08      0.151745        105845        102940        350552   5.27832e-08
    0.0315315       288.803       288.261      0.127762       10.0972      -8.00595             0       8.86833      -3.28696             0       23.9026        9.9473             0       86.7784             0             0      0.196104   2.06649e-08      0.147377        105854        102934        351429    3.7862e-08
     0.032032         288.8        288.26      0.128597       10.1215      -8.30256             0       7.92682      -3.50425             0       24.9374       10.0675             0       87.3687             0             0      0.197104   1.27904e-08      0.143031        105863        102929        352259   2.34345e-08
    0.0325325       288.799       288.259      0.128126       10.0945      -8.46914             0       6.95113      -3.70496             0       26.4558        10.347             0       87.3196             0             0      0.198032   8.85722e-09      0.138996        105865        102924        352393   1.62281e-08
     0.033033       288.799       288.258      0.127659       10.0633      -8.62435             0       5.97543      -3.90431             0       27.9608       10.6261             0       87.2361             0             0      0.198947   5.07724e-09      0.135017        105868        102920        352510   9.30245e-09
    0.0335335        288.81       288.258      0.127246       9.97375      -8.61872             0       4.99955      -4.08441             0       29.2759       10.8984             0       86.6652             0             0      0.199682   3.46589e-09      0.131821        105876        102917        352374   6.35015e-09
     0.034034       288.823       288.258      0.126889       9.87828      -8.60237             0        4.0243      -4.26307             0       30.5306       11.1538             0       86.0626             0             0      0.200396    1.9196e-09      0.128715        105884        102914        352243   3.51707e-09
    0.0345345       288.849       288.259      0.127283       9.70188      -8.43905             0       3.05768      -4.42196             0       30.9574       11.1784             0       85.0254             0             0      0.200822   1.26511e-09      0.126863        105901        102912        352171   2.31792e-09
     0.035035       288.875        288.26      0.127746       9.51883      -8.27029             0       2.09142      -4.57957             0        31.309       11.1725             0       83.9527             0             0      0.201223   6.39296e-10      0.125121        105919        102911        352105   1.17131e-09
    0.0355355       288.905       288.262      0.129111        9.2475      -8.02935             0       1.12975      -4.72011             0       30.6626       10.7605             0        82.409             0             0      0.201285   3.94454e-10      0.124853        105937        102910        352125   7.22714e-10
     0.036036       288.933       288.264      0.130535         8.972      -7.78933             0      0.168072      -4.85949             0       29.9787       10.3174             0       80.8242             0             0       0.20134   1.61985e-10      0.124611        105954        102910        352137   2.96786e-10
    0.0365365       288.951       288.266      0.132717       8.64278      -7.56115             0     -0.793751      -4.98392             0       28.8136       9.47384             0       78.7087             0             0      0.201316   8.89836e-11      0.124718        105960        102911        352027   1.63034e-10
     0.037037       288.969       288.268      0.134967       8.31333      -7.33547             0      -1.75522      -5.10647             0       27.6752       8.61946             0       76.5524             0             0      0.201308   2.06394e-11       0.12475        105966        102913        351885   3.78153e-11
    0.0375375       288.973        288.27      0.138086       7.98099      -7.14104             0      -2.71224      -5.20548             0       26.8707       7.63026             0       73.8845             0             0      0.201515    1.0572e-11      0.123853        105956        102916        351340   1.93699e-11
     0.038038       288.978       288.271      0.141266       7.65187      -6.94538             0      -3.66735      -5.30156             0       26.1422        6.6632             0       71.1821             0             0      0.201745   1.22393e-12       0.12285        105945        102919        350748   2.24247e-12
    0.0385385       288.976        288.27      0.145191       7.36188      -6.73467             0      -4.59915      -5.36207             0       26.3371       5.96547             0       68.0611             0             0      0.202272   6.21322e-13      0.120562        105924        102925        349589   1.13838e-12
     0.039039       288.975        288.27      0.149181       7.07941      -6.51783             0      -5.52594      -5.41868             0        26.627        5.3163             0       64.9168             0             0      0.202819   6.43415e-14      0.118182        105903        102930        348384   1.17886e-13
    0.0395395       288.976       288.267      0.153937       6.88582      -6.22865             0       -6.3936      -5.42912             0       28.0398       5.24107             0       61.4974             0             0      0.203615    4.6724e-14      0.114719        105879        102937        346623   8.56071e-14
      0.04004       288.978       288.264      0.158624       6.70272      -5.92802             0      -7.25212      -5.43496             0       29.5396       5.22016             0       58.0642             0             0       0.20441   3.06321e-14      0.111264        105856        102944        344824   5.61237e-14
    0.0405405       288.987        288.26      0.162506       6.64044      -5.49572             0      -8.00551      -5.38794             0       32.0391       5.82393             0       54.4723             0             0      0.205187   3.20834e-14      0.107887        105837        102953        342582   5.87828e-14
     0.041041       288.997       288.256      0.166137       6.58883      -5.05038             0      -8.74582      -5.33572             0       34.5907       6.46613             0       50.8715             0             0      0.205958   3.34353e-14      0.104531        105818        102962        340315   6.12598e-14
    0.0415415       289.013       288.254      0.166957       6.65659      -4.45896             0      -9.33972      -5.22524             0       37.7265       7.53848             0       47.1711             0             0      0.206677   3.36748e-14      0.101408        105806        102972        337770   6.16984e-14
     0.042042       289.029       288.253      0.167711       6.73223      -3.85713             0      -9.91821      -5.10925             0       40.8684       8.62204             0       43.4691             0             0      0.207393   3.37008e-14     0.0982932        105793        102981        335216   6.17461e-14
    0.0425425       289.048       288.253      0.167752       6.89382      -3.14186             0      -10.3285      -4.93327             0       44.0778        9.8278             0       39.7494             0             0      0.208087      3.14e-14     0.0952774        105784        102991        332569   5.75307e-14
     0.043043       289.066       288.252      0.167822       7.05794      -2.42316             0       -10.723      -4.75139             0       47.2814       11.0178             0         36.04             0             0      0.208769     2.885e-14     0.0923101        105774        103001        329925   5.28586e-14
    0.0435435       289.081       288.251      0.168205       7.24899      -1.66794             0      -10.9492      -4.50689             0       50.4234       12.0398             0       32.4411             0             0      0.209333   2.36508e-14     0.0898576        105764        103010        327313   4.33326e-14
     0.044044       289.097       288.249      0.168351       7.43359     -0.918278             0      -11.1597      -4.25714             0        53.602        13.036             0       28.8635             0             0      0.209895    1.8466e-14     0.0874137        105754        103019        324722   3.38332e-14
    0.0445445       289.108       288.246      0.166048       7.55132     -0.226266             0      -11.2069      -3.95311             0       57.1586       13.7652             0       25.5075             0             0      0.210436   1.34317e-14     0.0850601        105741        103028        322344   2.46094e-14
     0.045045       289.119       288.242      0.163601       7.64774       0.44778             0      -11.2393      -3.64515             0       60.8264       14.4607             0       22.1756             0             0      0.210975   8.61585e-15     0.0827195        105728        103036        320002   1.57859e-14
    0.0455455       289.129       288.237       0.15971       7.52859      0.940173             0      -11.1202       -3.2975             0       65.6179       14.8143             0       19.0862             0             0      0.211483   6.00886e-15     0.0805113        105714        103044        318019   1.10094e-14