#           y             T         TMean   TPrime2Mean           U_x           U_y           U_z       UMean_x       UMean_y       UMean_z UPrime2Mea... UPrime2Mea... UPrime2Mea... UPrime2Mea... UPrime2Mea... UPrime2Mea...            O2           H2O          C3H8             p         pMean   pPrime2Mean           CO2
            0       289.075       288.035     0.0808607       26.0424             0             0       22.7877             0             0       5.95111             0             0             0             0             0          0.23   5.87597e-15   6.57539e-09        105443        103162        351362   1.07659e-14
  0.000500501       289.077       288.035     0.0808536       26.0622    -0.0472886             0       22.7901   -0.00600351             0       5.97053      0.123576             0     0.0557025             0             0          0.23   4.17597e-14   3.23917e-08        105448        103162        350828   7.65116e-14
     0.001001       289.079       288.035     0.0808464       26.0818     -0.094501             0       22.7924    -0.0119997             0       5.99011      0.247156             0      0.111512             0             0          0.23   7.94538e-14    5.8836e-08        105453        103161        350292   1.45574e-13
    0.0015015       289.089       288.035     0.0807547       26.0209     -0.103717             0       22.7871    -0.0143467             0       6.08589      0.373021             0      0.220809             0             0          0.23   1.02047e-12   3.98658e-07        105476        103162        349023   1.86969e-12
     0.002002       289.099       288.035     0.0806637       25.9603     -0.112958             0       22.7818    -0.0167178             0       6.18201      0.499041             0      0.330687             0             0          0.23   2.00328e-12   7.51491e-07        105500        103162        347752   3.67039e-12
    0.0025025        289.11       288.035     0.0807058       25.9536     -0.128388             0        22.782    -0.0251119             0       6.35961      0.663794             0      0.585174             0             0      0.229999   1.33947e-11   4.34415e-06        105528        103162        345771   2.45416e-11
     0.003003       289.121       288.035     0.0807953       25.9465     -0.144133             0       22.7822    -0.0334251             0       6.53877      0.828539             0      0.840419             0             0      0.229998   2.56126e-11   8.19195e-06        105557        103162        343787    4.6927e-11
    0.0035035       289.138       288.042     0.0887136       25.8516     -0.211791             0       22.7695     -0.028339             0        6.9776       0.99196             0       1.22134             0             0      0.229988   1.74753e-10   5.43071e-05        105590        103161        341466    3.2018e-10
     0.004004       289.154        288.05     0.0991905       25.7575     -0.279521             0       22.7569    -0.0233616             0       7.41896       1.15689             0       1.60656             0             0      0.229976   4.30667e-10   0.000104713        105622        103161        339142   7.89063e-10
    0.0045045       289.189       288.109      0.426922       25.7603     -0.356067             0       22.7589    -0.0318566             0       8.17485       1.50918             0       2.52554             0             0      0.229842   1.39266e-08   0.000687176        105644        103160        336461   2.55161e-08
   0.00500501       289.226       288.171      0.825243       25.7612     -0.433765             0       22.7605    -0.0401131             0       8.93906       1.86058             0       3.45213             0             0      0.229698   3.35072e-08    0.00131062        105666        103159        333784   6.13914e-08
   0.00550551       289.438       288.503       8.21191       25.5772     -0.625486             0       22.7133    -0.0247605             0        10.527       2.12348             0       5.13122             0             0       0.22862   6.55469e-07    0.00599078        105681        103158        331601   1.20094e-06
   0.00600601        289.66       288.844       16.4051       25.3912     -0.812338             0       22.6663   -0.00996044             0         12.11       2.39349             0       6.83928             0             0      0.227497   1.61373e-06     0.0108668        105696        103157        329427   2.95666e-06
   0.00650651       290.654       289.928        91.001       25.0422     -0.598246             0       22.6308    -0.0406626             0       13.2904       3.25034             0       10.9326             0             0      0.222598   3.02607e-05     0.0318685        105703        103153        327990   5.54433e-05
   0.00700701       291.734       291.038       171.384       24.6727     -0.389315             0       22.5952    -0.0704262             0       14.4438       4.10174             0       15.0452             0             0      0.217624   6.45057e-05     0.0531411        105710        103148        326581   0.000118186
   0.00750751       298.826        293.94       659.369       22.8647     -0.543848             0       22.5499    -0.0340903             0       13.6973       4.56882             0       20.5124             0             0       0.20733   0.000493006     0.0934994        105748        103143        327097   0.000903279
   0.00800801        308.49       296.978       1259.55       21.0654     -0.662504             0       22.4944    0.00132236             0       12.9426       4.99517             0       25.9904             0             0      0.196803    0.00103276      0.133725        105787        103137        327597    0.00189221
   0.00850851       476.391       308.375       8760.14       19.8037       1.42532             0       21.8048    -0.0200414             0       11.6841        2.9158             0       32.1295             0             0         0.172     0.0084146      0.165788        105816        103130        327133     0.0154171
   0.00900901       644.443       319.743       16245.7       18.5783        3.5503             0       21.1157    -0.0397655             0       10.4305      0.825795             0       38.2427             0             0      0.147228     0.0157938      0.197739        105844        103123        326591     0.0289371
   0.00950951       820.755       329.445       22912.4       19.3347        7.7025             0       20.4529     0.0299704             0       9.44503      -1.84494             0        42.945             0             0      0.124201     0.0230277      0.223599        105816        103119        321782      0.042191
      0.01001        994.18       338.974       29445.4       20.0734       11.8182             0       19.7847      0.103029             0        8.4866       -4.4752             0       47.5457             0             0       0.10152     0.0301247      0.249357        105789        103115        316944     0.0551941
    0.0105105       1026.12       340.056       29430.7       19.9429       14.1452             0       18.8506      0.338876             0       8.85559      -5.12229             0       47.1674             0             0     0.0958398     0.0305134      0.270064        105765        103119        310687     0.0559062
     0.011011       1057.91       341.133         29430       19.8095        16.443             0       17.9014       0.57297             0       9.26521      -5.72569             0       46.7027             0             0     0.0902504      0.030896      0.290438        105741        103124        304416     0.0566072
    0.0115115       1082.63       341.969       30054.1       19.5488       17.4407             0       16.2872      0.729096             0       11.4809      -4.38701             0       42.3988             0             0      0.088711       0.03101      0.295961        105726        103132        297565     0.0568161
     0.012012       1107.26       342.812       30687.9       19.2797       18.4443             0       14.6746      0.882735             0       13.6765      -3.02531             0       38.0658             0             0     0.0872094     0.0311273      0.301286        105710        103140        290722      0.057031
    0.0125125       1128.02       343.906         31713       18.6646       19.6904             0       13.1238      0.935257             0        15.058     -0.727055             0        32.546             0             0      0.087239     0.0313769      0.298592        105708        103146        284211     0.0574884
     0.013013       1149.24       344.975       32721.8       18.0422       20.9254             0       11.5955      0.984966             0       16.3761       1.54808             0       27.0793             0             0     0.0873115     0.0316383      0.295593        105706        103152        277744     0.0579672
    0.0135135       1187.67       345.171         33117       17.1425       21.7451             0       10.9093      0.929296             0        15.317       2.95712             0       23.5997             0             0     0.0889875     0.0323358      0.281146        105714        103155        272927     0.0592452
     0.014014       1226.14       345.305       33462.4       16.2451       22.5537             0       10.2468      0.875497             0       14.2328       4.31954             0        20.162             0             0     0.0906366     0.0330391      0.266757        105723        103158        268143     0.0605337
    0.0145145       1265.88       343.259       32080.2        15.426       22.9731             0       10.4102      0.886641             0       12.2782       4.06367             0       18.1782             0             0     0.0913492     0.0339441      0.254369        105765        103159        264503      0.062192
     0.015015       1304.44       341.191       30654.8       14.6161       23.3572             0       10.5723      0.896378             0       10.3684       3.80623             0        16.219             0             0     0.0919823     0.0348238      0.242587        105807        103160        260891     0.0638036
    0.0155155       1304.84       338.441       27828.4       14.1029       22.5978             0       10.6959       0.86057             0        9.9051       3.49795             0       15.0558             0             0     0.0900411     0.0348812       0.25042        105856        103160        258144     0.0639089
     0.016016       1301.98       335.582       24934.1       13.5835       21.8053             0        10.834      0.822188             0       9.49399       3.16048             0       13.9227             0             0     0.0882747     0.0347872      0.259046        105905        103159        255430     0.0637366
    0.0165165       1200.08        329.44       19986.4       12.8776       20.0118             0        11.411      0.705913             0       10.6619       1.93978             0       13.6975             0             0     0.0917983     0.0301117      0.291715        105942        103158        253722     0.0551703
     0.017017       1095.48       323.231       15047.8        12.197       18.2266             0       12.0475      0.584803             0       11.8503      0.671186             0       13.4725             0             0     0.0952952     0.0253316      0.325573        105979        103157        252022     0.0464122
    0.0175175       914.316       315.144       10364.6       12.2356       16.6764             0       14.3764      0.326335             0       13.6236      -1.95834             0       13.2534             0             0     0.0980381     0.0175797       0.39324        105999        103157        250563     0.0322093
     0.018018       735.099       307.169       5776.59       12.2991       15.1216             0       16.7051     0.0759155             0       15.3798      -4.54557             0       13.0419             0             0      0.100624    0.00995602      0.460272        106018        103157        249097     0.0182413
    0.0185185       608.029       302.219        3737.5       13.0293        13.446             0       19.0285     0.0410145             0       16.6778      -6.00004             0       13.0376             0             0     0.0990091      0.005764      0.510334        106009        103156        247436     0.0105607
     0.019019       483.994        297.37        1753.2       13.7421        11.793             0       21.2921    0.00889548             0       17.9265      -7.39444             0       13.0241             0             0     0.0977349    0.00170213      0.557579        105998        103155        245802    0.00311862
    0.0195195       436.827        295.05       1156.05       14.0163       10.7144             0        22.042     0.0472055             0       17.9282      -7.26823             0       12.7775             0             0      0.105088   0.000934846      0.533487        105929        103155        244814    0.00171281
      0.02002       390.681       292.775       574.914       14.3073       9.66772             0       22.7753     0.0849266             0        17.901      -7.12985             0        12.539             0             0      0.112752   0.000194852      0.507763        105861        103155        243847   0.000357004
    0.0205205       369.078       291.577        378.13       15.0059       9.38763             0       23.1091      0.108511             0       17.1793      -6.69947             0       12.4957             0             0      0.127885   0.000109814      0.442843        105798        103155        243375     0.0002012
     0.021021       347.883       290.402       186.676       15.7152       9.14356             0       23.4281      0.136428             0        16.454      -6.24456             0       12.5042             0             0       0.14296   2.78311e-05      0.378142        105739        103155        242900   5.09918e-05
    0.0215215        336.03       289.748       116.795       16.6673       9.72111             0       23.4114      0.263199             0        15.645      -5.23004             0       13.6944             0             0      0.156723   1.55153e-05      0.318434        105753        103153        242337   2.84269e-05
     0.022022       324.397       289.109       49.1337       17.6024       10.3153             0        23.372      0.390155             0       14.8668      -4.16468             0       14.9114             0             0      0.170289     3.695e-06      0.259571        105769        103151        241782   6.76993e-06
    0.0225225       317.564       288.809       29.7035       18.1672       11.2699             0       22.8382      0.521147             0       14.7589      -1.99457             0       16.7103             0             0      0.179601   2.64083e-06      0.219098        105808        103148        241401    4.8385e-06
     0.023023       310.802       288.518       10.9604       18.7254       12.2123             0       22.2553      0.658271             0       14.7865      0.261277             0       18.5118             0             0      0.188846    1.6175e-06      0.178915        105848        103145        241006   2.96356e-06
    0.0235235        305.51       288.416       6.46688       19.1476       12.9001             0       20.6517      0.922587             0       17.6212       4.29543             0       20.3647             0             0      0.196703   1.23369e-06      0.144754        105896        103141        240309   2.26036e-06
     0.024024       300.312       288.319       2.14587       19.6085       13.5933             0       18.9835       1.18177             0        20.817       8.31307             0       22.2779             0             0      0.204487   8.55464e-07      0.110918        105942        103137        239620   1.56737e-06
    0.0245245       296.975       288.315       1.24685       20.8359       14.3954             0       16.0336        1.3392             0       31.1741       12.0032             0       25.3856             0             0      0.210788   5.87891e-07     0.0835224        105942        103131        239095   1.07713e-06
     0.025025       293.729       288.311      0.386141       22.0393       15.1807             0       13.0878       1.48151             0       41.7741       15.4876             0       28.5547             0             0      0.216939   3.27914e-07     0.0567813        105941        103126        238553     6.008e-07
    0.0255255       292.225       288.336      0.253395       22.7849       15.6464             0       10.2173       1.33671             0       56.9881       15.0624             0       32.8934             0             0      0.220228   2.12241e-07     0.0424851        105889        103118        237705   3.88865e-07
     0.026026        290.77        288.36      0.126906       23.4488       16.0497             0       7.39983        1.1838             0       71.8589       14.4939             0       37.1933             0             0      0.223394    1.0071e-07     0.0287188        105836        103111        236853   1.84519e-07
    0.0265265       290.215        288.38      0.114491       22.6238       15.3176             0       5.54738      0.883196             0       80.4713       11.3112             0       40.7881             0             0      0.224339   6.46872e-08     0.0246131        105778        103103        235958   1.18519e-07
     0.027027        289.68       288.399      0.102748       21.7644        14.546             0       3.72749      0.577746             0       88.5021       8.09465             0       44.3137             0             0      0.225202   3.01062e-08     0.0208589        105720        103094        235085   5.51601e-08
    0.0275275       289.501       288.413      0.102772       20.3033        13.083             0       2.47813      0.187496             0       86.3449       4.28255             0       46.6269             0             0       0.22465   2.07799e-08     0.0232627        105675        103086        234618   3.80727e-08
     0.028028       289.328       288.427      0.102782       18.8752       11.6321             0       1.24934     -0.203725             0       83.8657      0.490064             0       48.8537             0             0      0.224056   1.18036e-08     0.0258421        105631        103078        234174   2.16264e-08
    0.0285285       289.265       288.438      0.102569       18.0053       10.3841             0      0.367354     -0.611316             0       75.9591      -2.97173             0       49.6234             0             0      0.222783   8.72587e-09     0.0313801        105608        103071        234125   1.59874e-08
     0.029029       289.204       288.448      0.102305       17.1584       9.16248             0      -0.50478      -1.01579             0       67.9607      -6.34184             0       50.3099             0             0      0.221541   5.74333e-09     0.0367804        105586        103064        234106   1.05229e-08
    0.0295295       289.175       288.455      0.101229       16.6839       8.37145             0      -1.21696      -1.36968             0       58.4703      -8.22301             0       49.6445             0             0      0.220814   4.30706e-09     0.0399429        105575        103059        234569   7.89133e-09
      0.03003       289.148       288.461       0.10012       16.1785       7.59032             0      -1.92147      -1.71972             0       49.0412      -10.0004             0        48.918             0             0      0.220155   3.01153e-09     0.0428072        105564        103054        235067   5.51769e-09
    0.0305305       289.139       288.467     0.0985075        15.187       6.96449             0       -2.5058      -2.00953             0       40.5734      -10.1519             0        47.236             0             0      0.220571   3.92113e-09     0.0409996        105550        103052        236101   7.18423e-09
     0.031031        289.13       288.472     0.0969324       14.1394       6.33671             0      -3.08259      -2.29374             0       32.3342      -10.2194             0       45.5108             0             0      0.221021   4.86078e-09      0.039041        105535        103049        237191   8.90585e-09
    0.0315315       289.136       288.477      0.095926       12.2415       5.67921             0       -3.5454      -2.49336             0       27.5552      -9.01578             0       43.1342             0             0      0.221997   6.25518e-09     0.0347986        105514        103050        239137   1.14606e-08
     0.032032       289.142       288.481     0.0949907       10.3063       5.01824             0      -3.99693      -2.68777             0       23.0318      -7.78397             0       40.7388             0             0      0.222961   7.69749e-09     0.0306067        105492        103050        241160   1.41032e-08
    0.0325325       289.165       288.482     0.0950956       7.82521       4.30637             0      -4.28348      -2.80614             0       22.2459       -6.1404             0       38.0671             0             0      0.223755   9.84056e-09     0.0271533        105470        103053        244293   1.80297e-08
     0.033033       289.187       288.484     0.0952357       5.33294       3.59632             0      -4.55751      -2.91978             0       21.6034      -4.51147             0       35.3928             0             0      0.224518   1.24417e-08     0.0238385        105449        103056        247526   2.27956e-08
    0.0335335       289.212       288.484     0.0958734       2.68322       2.91212             0      -4.65427      -2.96661             0       22.9889      -3.08981             0       32.6799             0             0      0.224829   2.15259e-08     0.0224856        105440        103060        252172   3.94395e-08
     0.034034       289.238       288.484     0.0964944     0.0384808       2.23271             0      -4.74004      -3.01032             0       24.3915      -1.69282             0       29.9831             0             0      0.225119   3.17975e-08      0.021225        105433        103065        256889   5.82589e-08
    0.0345345       289.265       288.484     0.0968854      -2.53799       1.61894             0      -4.67507      -3.01121             0       26.0285     -0.633933             0       27.5058             0             0      0.225118   5.83435e-08     0.0212292        105448        103069        262591   1.06896e-07
     0.035035       289.291       288.485     0.0971945      -5.09755       1.01624             0      -4.60244      -3.00919             0       27.6031      0.398997             0       25.0492             0             0        0.2251    8.7721e-08     0.0213035        105465        103074        268326   1.60721e-07
    0.0355355        289.31       288.488     0.0964162      -7.43237      0.560439             0      -4.42805      -2.96865             0       28.3485       1.08707             0       22.8666             0             0      0.224869   1.54717e-07     0.0223097        105507        103078        274494    2.8347e-07
     0.036036       289.327        288.49     0.0955144      -9.73688      0.112538             0      -4.24714      -2.92505             0       28.9887       1.73757             0        20.706             0             0      0.224616   2.26421e-07     0.0234101        105550        103082        280642   4.14846e-07
    0.0365365       289.311       288.496      0.093021      -11.6509     -0.233583             0      -3.98224      -2.84201             0        28.271       1.90379             0        18.828             0             0      0.224083   3.58811e-07     0.0257257        105609        103086        286521   6.57409e-07
     0.037037       289.291       288.502     0.0905413      -13.5113     -0.564575             0      -3.71269      -2.75559             0       27.4596       2.03423             0       16.9778             0             0      0.223477   4.91125e-07     0.0283593        105668        103089        292346   8.99833e-07
    0.0375375        289.21        288.51     0.0882328       -14.702      -0.70626             0        -3.385      -2.62693             0       25.4757       1.71685             0       15.4745             0             0      0.221955   6.22488e-07     0.0349734        105729        103091        297498   1.14051e-06
     0.038038       289.131       288.518     0.0860293      -15.8054     -0.817157             0      -3.05389      -2.49592             0       23.4701       1.38946             0       14.0022             0             0      0.220288   7.41724e-07     0.0422215        105789        103093        302575   1.35898e-06
    0.0385385       289.071       288.525     0.0851025      -15.8476     -0.553729             0      -2.68109       -2.3363             0       21.2018      0.940266             0       12.9056             0             0      0.216849   7.13528e-07     0.0571768        105837        103095        306748   1.30732e-06
     0.039039       289.019       288.533     0.0842473      -15.8028     -0.265623             0      -2.30677      -2.17559             0       18.9786      0.499839             0       11.8333             0             0      0.213385   6.74434e-07     0.0722374        105884        103096        310847   1.23569e-06
    0.0395395       289.057       288.539     0.0842394      -14.7294      0.314187             0      -1.91444      -2.00199             0       17.2886      0.163007             0       11.0489             0             0      0.209635   5.06538e-07     0.0885433        105912        103097        314072   9.28072e-07
      0.04004       289.098       288.544     0.0842942      -13.6253      0.892222             0      -1.52076      -1.82873             0        15.653      -0.16202             0       10.2736             0             0      0.206056   3.42444e-07      0.104103        105938        103098        317232   6.27422e-07
    0.0405405       289.175       288.548     0.0850714      -12.1685       1.44985             0      -1.11142      -1.65921             0       14.6439     -0.351291             0       9.60191             0             0      0.204451   2.22081e-07       0.11108        105946        103099        319640   4.06893e-07
     0.041041       289.251       288.551     0.0858446      -10.7275        1.9877             0     -0.700189      -1.49035             0       13.6624     -0.531205             0       8.93227             0             0       0.20305   1.08511e-07      0.117175        105953        103100        321996   1.98812e-07
    0.0415415       289.314       288.554     0.0865715      -9.46372       2.30411             0     -0.267689      -1.32892             0       12.9902     -0.606378             0       8.28507             0             0      0.203918   7.09999e-08      0.113398        105952        103101        323766   1.30085e-07
     0.042042       289.373       288.558     0.0872591      -8.20874       2.60396             0      0.166485      -1.16879             0       12.3417     -0.669561             0       7.63495             0             0      0.204952   3.54952e-08      0.108904        105951        103102        325489   6.50338e-08
    0.0425425       289.387       288.562      0.087517      -7.04948       2.72324             0      0.618905      -1.02295             0       11.9509     -0.601993             0       6.95307             0             0      0.207785   2.18677e-08     0.0965878        105949        103103        326693   4.00657e-08
     0.043043       289.398       288.566     0.0877392      -5.88345       2.83357             0       1.07026     -0.878777             0       11.6094     -0.527337             0       6.27057             0             0      0.210563    9.0524e-09     0.0845062        105948        103105        327855   1.65857e-08
    0.0435435       289.378       288.569     0.0875817      -4.64563       2.84883             0       1.51023     -0.752327             0       11.7913     -0.377361             0       5.58135             0             0      0.212769   4.86883e-09     0.0749147        105948        103107        328552   8.92061e-09
     0.044044       289.357       288.573     0.0873607      -3.40125       2.85305             0       1.94795     -0.627716             0       12.0282     -0.223881             0       4.89638             0             0      0.214779   1.01258e-09     0.0661791        105948        103108        329217   1.85523e-09
    0.0445445       289.326       288.576     0.0864812      -2.08898       2.74285             0       2.36221     -0.522156             0       12.8347    -0.0340965             0       4.25543             0             0      0.214748   5.48418e-10     0.0663128        105950        103110        329543    1.0048e-09
     0.045045       289.296       288.579     0.0854849     -0.776814       2.62632             0       2.77132     -0.418777             0       13.6762      0.153131             0       3.62263             0             0       0.21459   1.20914e-10     0.0669974        105952        103112        329852   2.21537e-10
    0.0455455       289.277       288.581     0.0833084      0.534205       2.44573             0       3.12844     -0.337445             0       14.8716      0.314497             0       3.07228             0             0      0.213152   6.40217e-11     0.0732527        105953        103115        329987     1.173e-10