#           y             T         TMean   TPrime2Mean           U_x           U_y           U_z       UMean_x       UMean_y       UMean_z UPrime2Mea... UPrime2Mea... UPrime2Mea... UPrime2Mea... UPrime2Mea... UPrime2Mea...            O2           H2O          C3H8             p         pMean   pPrime2Mean           CO2
  1.11022e-19       289.167       288.174      0.196346       25.7417  -2.87392e-18             0       17.0476    5.4528e-18             0       40.3763  -2.68786e-17             0   2.46494e-17             0             0      0.229799   1.07447e-10   0.000872074        105157        103187        306270   1.96862e-10
  0.000500501       289.221       288.175      0.204231       25.7422     -0.012956             0       17.0526     0.0245818             0       40.3077     -0.121171             0      0.111122             0             0      0.229678   1.72424e-10    0.00139921        105155        103187        306268   3.15914e-10
     0.001001       289.276       288.177      0.212179       25.7428    -0.0259192             0       17.0576     0.0491654             0       40.2387     -0.242291             0       0.22251             0             0      0.229556   2.38013e-10    0.00192967        105154        103186        306266   4.36085e-10
    0.0015015       289.578       288.189      0.250774       25.7618    -0.0425067             0       17.0608     0.0746468             0       39.9912     -0.337622             0      0.466619             0             0      0.229053   6.08468e-10    0.00411954        105152        103186        306264   1.11483e-09
     0.002002       289.883         288.2      0.290037       25.7808    -0.0591436             0       17.0639      0.100135             0       39.7424     -0.432697             0      0.711213             0             0      0.228546   9.83938e-10    0.00632153        105149        103186        306262   1.80276e-09
    0.0025025       290.808       288.234      0.495432       25.7829    -0.0880542             0       17.0348      0.127253             0       39.1615     -0.464023             0       1.07642             0             0      0.227346   2.60812e-09     0.0115412        105144        103185        306307   4.77857e-09
     0.003003       291.738       288.269      0.703919       25.7852     -0.116969             0       17.0054      0.154378             0       38.5783     -0.494949             0        1.4422             0             0      0.226139   4.25216e-09     0.0167854        105140        103185        306352   7.79075e-09
    0.0035035       293.489       288.329       1.42441        25.798     -0.146658             0       16.9336      0.182571             0       37.5976     -0.459514             0       1.90082             0             0      0.223994   9.18446e-09     0.0261115        105136        103184        306423   1.68277e-08
     0.004004        295.25        288.39       2.15033       25.8111     -0.176337             0       16.8615      0.210764             0       36.6161     -0.423939             0        2.3601             0             0      0.221844   1.41647e-08     0.0354577        105133        103184        306495   2.59523e-08
    0.0045045       298.365       288.464          3.55       25.8698      -0.20488             0       16.7664      0.238917             0       35.5434     -0.370996             0       2.89948             0             0      0.219118   2.50826e-08     0.0473102        105130        103183        306578   4.59561e-08
   0.00500501       301.487       288.537       4.94969       25.9291     -0.233144             0       16.6712      0.267055             0       34.4738     -0.318242             0       3.43957             0             0      0.216394   3.61287e-08      0.059152        105127        103182        306661   6.61946e-08
   0.00550551         305.3       288.597       6.35025       26.0564     -0.233753             0       16.5716      0.293677             0       33.7102     -0.284174             0       4.04979             0             0      0.213913   5.98562e-08     0.0699391        105126        103182        306799   1.09668e-07
   0.00600601       309.108       288.657       7.74201       26.1852      -0.23305             0       16.4721      0.320256             0       32.9511     -0.251233             0       4.66113             0             0      0.211437   8.39407e-08     0.0807031        105126        103181        306937   1.53795e-07
   0.00650651       312.643       288.691       8.40967       26.4416     -0.124302             0       16.3838      0.343342             0       32.5741     -0.311017             0       5.36377             0             0      0.209399   1.37416e-07     0.0895617        105127        103180        307092   2.51772e-07
   0.00700701       316.174       288.726       9.06846       26.6955    -0.0143002             0        16.296      0.366332             0       32.2021     -0.373705             0       6.06861             0             0      0.207363   1.90954e-07     0.0984143        105129        103179        307248   3.49863e-07
   0.00750751       319.513       288.739       9.10178       26.7783       0.18401             0       16.2358      0.382566             0       32.1888     -0.640977             0       6.92848             0             0      0.205423   2.48859e-07      0.106848        105131        103178        307438   4.55957e-07
   0.00800801       322.824       288.751       9.12715       26.8532      0.382533             0       16.1761      0.398786             0       32.1808      -0.90975             0       7.79122             0             0      0.203483   3.06124e-07      0.115279        105134        103177        307630   5.60876e-07
   0.00850851       324.399       288.744       8.66273       26.4398      0.594097             0       16.1421      0.414156             0       32.4997      -1.27085             0       8.83076             0             0      0.201589   3.23951e-07      0.123516        105138        103176        307949   5.93539e-07
   0.00900901        325.92       288.737       8.19111         26.02      0.805293             0       16.1079      0.429694             0       32.8183      -1.62825             0       9.87217             0             0      0.199703   3.41036e-07      0.131713        105142        103175        308270   6.24842e-07
   0.00950951       324.484       288.717       7.32618       25.2528      0.996355             0       16.0625      0.454376             0       33.1202      -1.78361             0       11.0163             0             0      0.198329    3.1763e-07      0.137687        105147        103174        308731   5.81957e-07
      0.01001       323.009       288.697       6.46009       24.4841       1.18654             0        16.016      0.479288             0        33.415      -1.93287             0        12.161             0             0      0.196957   2.93902e-07      0.143654        105153        103173        309195   5.38483e-07
    0.0105105       319.569       288.674       5.53744       23.6393       1.33367             0       15.9162      0.515496             0       33.3651      -1.78309             0       13.3364             0             0      0.195674   2.54388e-07      0.149238        105160        103171        309761   4.66086e-07
     0.011011       316.126       288.651       4.61915       22.7978       1.47863             0       15.8149      0.551823             0       33.3125       -1.6286             0       14.5125             0             0      0.194372   2.14991e-07      0.154899        105168        103170        310330   3.93904e-07
    0.0115115       312.538       288.631       3.89507       22.0952       1.52699             0       15.6475      0.593446             0       33.1375      -1.26475             0       15.7167             0             0      0.192284   1.80817e-07      0.163981        105176        103168        311050    3.3129e-07
     0.012012       308.961        288.61       3.17383       21.3973       1.57296             0       15.4785      0.635073             0       32.9697     -0.897516             0       16.9214             0             0      0.190187   1.46822e-07      0.173099        105184        103167        311776   2.69006e-07
    0.0125125       305.804       288.586       2.56783       20.8846       1.52141             0       15.2448      0.676901             0       33.0952     -0.392617             0       18.1423             0             0      0.187742    1.2016e-07      0.183731        105193        103165        312706   2.20155e-07
     0.013013       302.652       288.561       1.96359       20.3749       1.46649             0       15.0095      0.718585             0       33.2297       0.11307             0       19.3625             0             0      0.185308   9.35706e-08      0.194314        105202        103163        313643   1.71439e-07
    0.0135135       299.669       288.529       1.42505       19.9821       1.28506             0       14.7129      0.754866             0       33.7037      0.648302             0       20.5562             0             0      0.183282   6.97276e-08      0.203123        105211        103161        314842   1.27754e-07
     0.014014       296.716       288.497      0.894052       19.5917       1.10329             0       14.4152      0.790724             0       34.1833       1.17977             0       21.7487             0             0      0.181277   4.61024e-08      0.211841        105220        103159        316048   8.44683e-08
    0.0145145        294.84       288.471      0.624975       19.2887      0.909624             0       14.0785      0.811915             0       34.8575       1.58067             0        22.898             0             0      0.179997   3.00377e-08      0.217406        105228        103157        317500   5.50346e-08
     0.015015       292.999       288.445      0.362427       18.9877         0.719             0       13.7413      0.832465             0       35.5311       1.97535             0        24.046             0             0      0.178746   1.43047e-08      0.222846        105236        103156        318958   2.62089e-08
    0.0155155       292.312       288.434      0.310981       18.7522       0.62684             0       13.3893      0.832295             0       36.1848       2.16874             0       25.1519             0             0      0.178432   9.30108e-09      0.224211        105241        103154        320615   1.70413e-08
     0.016016       291.633       288.423      0.261005       18.5187      0.537308             0       13.0374      0.831546             0       36.8282       2.35733             0       26.2567             0             0      0.178155   4.40737e-09      0.225414        105246        103152        322279   8.07512e-09
    0.0165165       291.224       288.421      0.255468       18.3458      0.527244             0       12.6855      0.813298             0       37.1593       2.40064             0       27.3278             0             0      0.179004   2.83846e-09      0.221721        105248        103150        324175   5.20059e-09
     0.017017       290.821       288.418      0.250034       18.1754      0.518603             0       12.3343      0.794792             0       37.4757       2.44206             0       28.3979             0             0       0.17987   1.30656e-09      0.217958        105249        103149        326077   2.39386e-09
    0.0175175       290.591       288.416      0.247502       18.0717      0.550367             0       11.9996      0.768931             0       37.3753       2.43005             0       29.4414             0             0      0.181197   8.25912e-10      0.212188        105246        103147        328111   1.51323e-09
     0.018018       290.368       288.414      0.244953       17.9709      0.583286             0       11.6658      0.743059             0       37.2577       2.41711             0       30.4849             0             0      0.182514   3.59652e-10       0.20646        105243        103146        330149    6.5895e-10
    0.0185185       290.332       288.408      0.241935       17.9452      0.647132             0        11.354      0.716928             0       36.6798       2.37922             0       31.5297             0             0      0.183576   2.78593e-10      0.201843        105237        103144        332283   5.10434e-10
     0.019019       290.296       288.403      0.238978       17.9211      0.713461             0       11.0427      0.690797             0       36.0825       2.33947             0       32.5765             0             0      0.184638   2.00136e-10      0.197223        105231        103143        334418   3.66686e-10
    0.0195195       290.296       288.399      0.237585       17.9362      0.842646             0       10.7465       0.66468             0       34.9945       2.25262             0       33.6721             0             0       0.18571   1.87558e-10      0.192562        105222        103141        336577   3.43642e-10
      0.02002       290.296       288.394      0.236223       17.9488      0.975526             0       10.4506      0.638494             0       33.8928       2.16353             0       34.7703             0             0      0.186789   1.75077e-10      0.187872        105214        103140        338729   3.20773e-10
    0.0205205       290.285       288.396      0.235622       17.9022       1.19709             0       10.1659      0.610636             0       32.4611       2.02047             0       35.9274             0             0      0.188027   1.64905e-10      0.182492        105204        103139        340746   3.02136e-10
     0.021021       290.274       288.399      0.234998       17.8507       1.42115             0       9.88148      0.582715             0       31.0242       1.87477             0       37.0854             0             0      0.189262   1.54721e-10      0.177123        105195        103137        342753   2.83478e-10
    0.0215215       290.284       288.407      0.233846       17.6859       1.70206             0       9.60558      0.553349             0       29.4719       1.66884             0       38.2636             0             0      0.190436   1.44292e-10       0.17202        105185        103136        344548    2.6437e-10
     0.022022       290.294       288.415      0.232738       17.5165       1.98331             0       9.32975      0.523911             0       27.9231       1.46008             0       39.4396             0             0      0.191602   1.33929e-10      0.166948        105176        103135        346327   2.45383e-10
    0.0225225       290.298       288.426      0.232596       17.2476       2.27212             0       9.05536      0.492894             0       26.4488       1.18996             0       40.5669             0             0      0.192609   1.25012e-10      0.162571        105167        103134        347748   2.29044e-10
     0.023023       290.299       288.437      0.232501       16.9751       2.55911             0       8.78085      0.461677             0       24.9845      0.917995             0       41.6885             0             0      0.193595   1.15843e-10      0.158286        105157        103133        349150   2.12245e-10
    0.0235235        290.22       288.446      0.233404       16.6272       2.80852             0       8.50398      0.426298             0       23.7245      0.607718             0       42.6945             0             0      0.194135   1.01463e-10      0.155937        105150        103132        350133   1.85898e-10
     0.024024        290.14       288.455      0.234397       16.2781       3.05424             0       8.22739      0.390571             0       22.4774      0.297564             0       43.6928             0             0      0.194634   8.69996e-11       0.15377        105142        103131        351094     1.594e-10
    0.0245245        290.04       288.463      0.237194       15.9031        3.2267             0       7.95654      0.347942             0       21.4863    -0.0101447             0       44.5358             0             0        0.1943    7.0892e-11      0.155223        105136        103131        351591   1.29887e-10
     0.025025       289.941       288.471      0.240007         15.53       3.39486             0       7.68668      0.304998             0       20.5118     -0.316743             0       45.3701             0             0      0.193915   5.50105e-11      0.156897        105130        103130        352061   1.00789e-10
    0.0255255       289.867        288.48      0.243113       15.1906       3.48116             0       7.43557      0.256069             0       19.8546     -0.602236             0       46.0398             0             0      0.192567   4.34235e-11      0.162756        105126        103130        352005   7.95599e-11
     0.026026       289.791       288.489      0.246063       14.8551        3.5637             0       7.18579      0.206982             0       19.2185      -0.88794             0       46.7009             0             0      0.191177   3.20045e-11      0.168802        105122        103130        351919   5.86381e-11
    0.0265265       289.686       288.497      0.246166       14.5913       3.57771             0       6.96029      0.155028             0       18.9674      -1.17749             0        47.205             0             0      0.188995   2.36475e-11      0.178285        105119        103130        351308   4.33265e-11
     0.027027        289.58       288.505      0.246108       14.3312       3.58887             0       6.73616      0.103045             0       18.7408      -1.46965             0       47.7007             0             0       0.18682   1.54909e-11      0.187743        105117        103130        350670   2.83823e-11
    0.0275275       289.467       288.512      0.243208       14.1361       3.55014             0       6.53592     0.0505418             0       18.9425      -1.80777             0       48.0492             0             0      0.184747   1.08465e-11      0.196754        105115        103130        349550   1.98727e-11
     0.028028       289.356       288.518      0.240228       13.9437       3.50815             0        6.3371   -0.00190733             0       19.1675      -2.14965             0       48.3886             0             0      0.182726   6.35393e-12      0.205542        105114        103130        348408   1.16416e-11
    0.0285285       289.274        288.52      0.235913       13.7975        3.4111             0       6.16226    -0.0534537             0       19.7835      -2.55517             0        48.574             0             0      0.181567   4.42255e-12      0.210578        105113        103130        346883   8.10293e-12
     0.029029       289.194       288.522      0.231648       13.6541          3.31             0        5.9889     -0.104907             0       20.4155      -2.96335             0       48.7476             0             0      0.180456   2.56076e-12      0.215408        105111        103131        345344   4.69178e-12
    0.0295295       289.142       288.522      0.228215       13.5581       3.14296             0       5.83978     -0.154849             0       21.3064      -3.41463             0       48.7288             0             0      0.180111   1.82913e-12      0.216906        105109        103131        343570   3.35131e-12
      0.03003       289.092       288.521      0.224837       13.4656       2.97295             0       5.69186     -0.204533             0       22.2047      -3.86625             0       48.6941             0             0      0.179799   1.12458e-12      0.218264        105107        103132        341787   2.06044e-12
    0.0305305       289.059       288.519      0.222337       13.4291       2.75623             0       5.56294     -0.250172             0       23.2182      -4.32313             0       48.4085             0             0      0.179993   8.44184e-13      0.217422        105104        103133        339850    1.5467e-12
     0.031031       289.026       288.517      0.219808       13.3957       2.53956             0       5.43468     -0.295211             0        24.232      -4.77755             0       48.1035             0             0      0.180214   5.72527e-13      0.216459        105100        103134        337906   1.04898e-12
    0.0315315       288.999       288.515      0.216845       13.4105       2.32345             0       5.31649     -0.331171             0       25.2511      -5.19479             0       47.5044             0             0      0.180856   4.33107e-13      0.213669        105095        103135        335860   7.93534e-13
     0.032032       288.972       288.513      0.213829       13.4279       2.11028             0       5.19917     -0.366297             0       26.2649      -5.60808             0       46.8849             0             0      0.181512   2.97096e-13      0.210816        105090        103137        333815   5.44335e-13
    0.0325325       288.946        288.51      0.210015        13.484       1.94021             0       5.09457     -0.389221             0       27.2009       -5.9637             0       45.9664             0             0      0.182381   2.10931e-13      0.207039        105083        103138        331762   3.86465e-13
     0.033033       288.919       288.508      0.206141       13.5426       1.77438             0       4.99177     -0.411342             0       28.1333      -6.31786             0       45.0314             0             0      0.183242   1.27874e-13      0.203297        105076        103140        329713   2.34289e-13
    0.0335335       288.896       288.507      0.201411       13.6358        1.6685             0       4.91434     -0.422101             0       29.0153      -6.65152             0       43.8616             0             0      0.183986   8.88026e-14      0.200062        105068        103141        327710   1.62703e-13
     0.034034       288.873       288.506      0.196676       13.7307       1.56644             0        4.8394     -0.432362             0       29.9038      -6.98431             0       42.6805             0             0      0.184718   5.14472e-14      0.196878        105059        103143        325717   9.42609e-14
    0.0345345       288.852       288.505       0.19187       13.8496       1.51683             0       4.79858     -0.435798             0        30.883      -7.30513             0       41.3426             0             0      0.185291   3.76121e-14      0.194385        105050        103145        323868   6.89124e-14
     0.035035       288.832       288.504      0.187116       13.9691       1.46962             0       4.76072      -0.43911             0        31.871       -7.6206             0       39.9966             0             0      0.185857   2.43295e-14      0.191925        105040        103147        322032   4.45761e-14
    0.0355355       288.813       288.503      0.183041       14.0969       1.45435             0       4.76214     -0.440784             0       32.9772        -7.865             0       38.5419             0             0      0.186327   1.83873e-14      0.189885        105028        103149        320365    3.3689e-14
     0.036036       288.794       288.502      0.178983       14.2243       1.43974             0       4.76626     -0.442202             0       34.0967      -8.10491             0       37.0825             0             0      0.186783   1.26405e-14      0.187902        105017        103151        318709   2.31597e-14
    0.0365365       288.779       288.502      0.175155       14.3477       1.43353             0       4.80524      -0.44032             0        35.387      -8.28701             0       35.5617             0             0       0.18707   9.41041e-15      0.186653        105005        103152        317195   1.72416e-14
     0.037037       288.764       288.502      0.171372        14.471       1.42639             0       4.84614     -0.437862             0       36.7012      -8.47112             0       34.0371             0             0      0.187344   6.30064e-15      0.185462        104993        103154        315697   1.15439e-14
    0.0375375       288.755       288.502      0.168161       14.5918       1.40765             0        4.9112     -0.428199             0       38.3147      -8.68042             0       32.4631             0             0      0.187452   4.69598e-15      0.184994        104982        103156        314397   8.60391e-15
     0.038038       288.745       288.502      0.165146       14.7137       1.38709             0       4.97819     -0.418088             0       39.9345      -8.89522             0       30.8862             0             0      0.187552   3.16804e-15      0.184556        104972        103159        313112   5.80443e-15
    0.0385385       288.738         288.5      0.164516       14.8485        1.3446             0       5.06856     -0.402525             0       41.6314      -9.17699             0       29.2748             0             0      0.187567   2.57279e-15      0.184494        104965        103161        312026   4.71383e-15
     0.039039       288.731       288.498       0.16412       14.9858       1.30014             0       5.16106     -0.386805             0       43.2997      -9.46059             0       27.6641             0             0      0.187587   2.00528e-15      0.184404        104958        103163        310956   3.67405e-15
    0.0395395       288.723       288.492      0.166501       15.1513       1.23258             0       5.27867     -0.369247             0       44.6297      -9.76573             0        26.062             0             0      0.187683   1.76564e-15      0.183988        104956        103165        310080   3.23498e-15
      0.04004       288.715       288.486      0.169027       15.3199       1.16305             0       5.39705     -0.351701             0       45.9329      -10.0659             0       24.4625             0             0      0.187784   1.53791e-15      0.183551        104954        103167        309229   2.81774e-15
    0.0405405       288.705       288.476       0.17321        15.523       1.07093             0       5.52433     -0.334286             0       46.9274      -10.3093             0       22.8931             0             0      0.187939   1.44723e-15      0.182879        104958        103169        308675   2.65159e-15
     0.041041       288.696       288.467      0.177445       15.7297      0.977378             0       5.64956     -0.316787             0       47.9305      -10.5467             0       21.3265             0             0      0.188085    1.3636e-15      0.182245        104962        103171        308140   2.49837e-15
    0.0415415        288.69       288.455       0.18226       15.9784      0.867649             0        5.7518     -0.298353             0       49.0307      -10.7165             0       19.7895             0             0      0.188129   1.35899e-15       0.18205        104971        103173        307826   2.48993e-15
     0.042042       288.685       288.443       0.18702       16.2323      0.757847             0        5.8506      -0.27983             0       50.1409      -10.8751             0       18.2533             0             0      0.188168    1.3592e-15       0.18188        104981        103175        307524   2.49031e-15
    0.0425425       288.687       288.432      0.191174       16.5443      0.647251             0       5.91191     -0.260325             0       51.3616      -10.9103             0       16.7244             0             0      0.188141   1.41192e-15      0.181996        104995        103177        307353    2.5869e-15
     0.043043       288.688        288.42      0.195239       16.8634      0.538156             0       5.97047     -0.241178             0       52.5393      -10.9199             0       15.1939             0             0      0.188108   1.47385e-15      0.182141        105009        103179        307196   2.70037e-15
    0.0435435       288.696       288.412      0.198363       17.2583      0.445006             0       5.99985     -0.225835             0       53.2617      -10.6565             0       13.6446             0             0      0.188005   1.63372e-15      0.182589        105027        103181        307203   2.99328e-15
     0.044044       288.704       288.404      0.201478       17.6577      0.354639             0       6.02588      -0.21124             0       53.9194       -10.363             0       12.0982             0             0      0.187892   1.81821e-15      0.183081        105044        103183        307217    3.3313e-15
    0.0445445       288.716       288.399      0.204509       18.1032      0.293107             0       6.01729     -0.204392             0       53.9066       -9.7574             0       10.5826             0             0      0.187674    2.2579e-15      0.184024        105064        103184        307319    4.1369e-15
     0.045045       288.728       288.393      0.207375       18.5488      0.236146             0       6.00332     -0.197597             0       53.8732      -9.12812             0       9.07801             0             0      0.187454   2.75816e-15      0.184983        105083        103186        307428   5.05346e-15
    0.0455455       288.734       288.387      0.208566       18.9946      0.225407             0       5.93494     -0.191335             0       53.6328      -8.25889             0       7.68391             0             0      0.187199   3.87083e-15      0.186089        105102        103188        307614   7.09208e-15