#           y             T         TMean   TPrime2Mean           U_x           U_y           U_z       UMean_x       UMean_y       UMean_z UPrime2Mea... UPrime2Mea... UPrime2Mea... UPrime2Mea... UPrime2Mea... UPrime2Mea...            O2           H2O          C3H8             p         pMean   pPrime2Mean           CO2
         0.02       295.215       290.866         188.2       25.9769      -5.56528             0       21.7963     -0.823338             0       40.7123      -2.79812             0       19.6585             0             0      0.210797   8.91284e-07     0.0834855        102702        103078        205795     1.633e-06
    0.0201677       294.111       290.631       167.347       25.9157       -5.8266             0       21.8281      -0.80288             0       40.5365      -2.00087             0       20.0392             0             0      0.212748   7.50292e-07     0.0750014        102699        103078        206321   1.37468e-06
    0.0203353       293.007       290.397       146.494       25.8544      -6.08792             0       21.8599     -0.782422             0       40.3606      -1.20362             0       20.4199             0             0        0.2147     6.093e-07     0.0665173        102696        103077        206847   1.11635e-06
     0.020503       291.903       290.163        125.64       25.7932      -6.34924             0       21.8917     -0.761964             0       40.1847     -0.406364             0       20.8006             0             0      0.216652   4.68308e-07     0.0580331        102693        103077        207373   8.58028e-07
    0.0206707       290.799       289.929       104.787        25.732      -6.61056             0       21.9235     -0.741506             0       40.0088      0.390889             0       21.1813             0             0      0.218603   3.27317e-07      0.049549        102690        103076        207899   5.99705e-07
    0.0208383       289.695       289.695       83.9333       25.6707      -6.87188             0       21.9553     -0.721048             0       39.8329       1.18814             0       21.5619             0             0      0.220555   1.86325e-07     0.0410649        102687        103076        208426   3.41382e-07
     0.021006       288.627       289.465        63.561       25.5964        -7.131             0       21.9813     -0.700213             0       39.6645       1.99047             0       21.9443             0             0      0.222433   5.00989e-08     0.0328977        102684        103075        208953   9.17906e-08
    0.0211737       288.534       289.346       56.1361       25.1681      -7.33088             0       21.8532     -0.669226             0       39.6958        2.9294             0       22.3708             0             0       0.22235   4.21584e-08     0.0332612        102680        103075        209518    7.7242e-08
    0.0213413       288.441       289.227       48.7113       24.7399      -7.53077             0       21.7251     -0.638239             0       39.7271       3.86833             0       22.7974             0             0      0.222266   3.42178e-08     0.0336247        102676        103074        210083   6.26935e-08
     0.021509       288.347       289.108       41.2865       24.3117      -7.73066             0        21.597     -0.607252             0       39.7584       4.80726             0       23.2239             0             0      0.222183   2.62773e-08     0.0339882        102672        103074        210647   4.81449e-08
    0.0216767       288.254       288.989       33.8617       23.8834      -7.93055             0       21.4689     -0.576265             0       39.7897       5.74619             0       23.6505             0             0      0.222099   1.83368e-08     0.0343517        102668        103073        211212   3.35964e-08
    0.0218443       288.161       288.871       26.4369       23.4552      -8.13044             0       21.3408     -0.545278             0        39.821       6.68513             0        24.077             0             0      0.222016   1.03962e-08     0.0347152        102664        103072        211777   1.90478e-08
     0.022012       288.075       288.756       19.3671       22.9969      -8.32234             0       21.2013     -0.515499             0       39.8497       7.61989             0       24.5081             0             0      0.221886    2.9896e-09     0.0352783        102660        103072        212347   5.47751e-09
    0.0221797       288.084       288.699       16.8972       22.1489       -8.4108             0       20.9149     -0.501383             0       39.8441       8.50062             0       24.9969             0             0      0.221162    2.5016e-09     0.0384287        102656        103071        212986    4.5834e-09
    0.0223473       288.094       288.642       14.4274        21.301      -8.49925             0       20.6286     -0.487267             0       39.8386       9.38134             0       25.4858             0             0      0.220437    2.0136e-09      0.041579        102653        103071        213625    3.6893e-09
     0.022515       288.103       288.585       11.9575        20.453      -8.58771             0       20.3422     -0.473151             0        39.833       10.2621             0       25.9747             0             0      0.219712    1.5256e-09     0.0447294        102650        103070        214264   2.79519e-09
    0.0226827       288.113       288.528       9.48767       19.6051      -8.67616             0       20.0558     -0.459035             0       39.8274       11.1428             0       26.4636             0             0      0.218988    1.0376e-09     0.0478797        102646        103070        214903   1.90109e-09
    0.0228504       288.122        288.47       7.01782       18.7571      -8.76462             0       19.7694     -0.444918             0       39.8219       12.0235             0       26.9525             0             0      0.218263   5.49606e-10       0.05103        102643        103069        215542   1.00698e-09
     0.023018       288.132       288.417       4.74426       17.8961      -8.84553             0       19.4707     -0.434344             0       39.7883       12.8769             0       27.4646             0             0      0.217531    1.1209e-10     0.0542126        102640        103069        216189   2.05371e-10
    0.0231857       288.145       288.396       4.10098       16.9267      -8.86377             0       19.0693     -0.453184             0       39.5216       13.5029             0       28.1695             0             0      0.216738    9.3871e-11     0.0576624        102637        103068        216901   1.71989e-10
    0.0233534       288.158       288.374       3.45769       15.9573      -8.88202             0       18.6678     -0.472024             0       39.2549       14.1288             0       28.8744             0             0      0.215944   7.56515e-11     0.0611123        102635        103068        217612   1.38608e-10
     0.023521       288.171       288.353       2.81441       14.9879      -8.90027             0       18.2664     -0.490864             0       38.9882       14.7548             0       29.5793             0             0      0.215151   5.74319e-11     0.0645621        102632        103067        218324   1.05226e-10
    0.0236887       288.184       288.331       2.17113       14.0185      -8.91851             0        17.865     -0.509705             0       38.7215       15.3808             0       30.2842             0             0      0.214357   3.92124e-11      0.068012        102630        103067        219036   7.18445e-11
    0.0238564       288.197        288.31       1.52785       13.0491      -8.93676             0       17.4635     -0.528545             0       38.4548       16.0068             0       30.9891             0             0      0.213564   2.09929e-11     0.0714618        102628        103066        219747   3.84629e-11
     0.024024       288.208       288.291      0.958663       12.1102      -8.95938             0       17.0616     -0.553339             0       38.2177       16.5815             0       31.7259             0             0      0.212741    5.2859e-12     0.0750411        102625        103066        220466   9.68476e-12
    0.0241917       288.209       288.288      0.832509       11.3536       -9.0082             0       16.6565     -0.613737             0       38.1569       16.8497             0       32.6531             0             0      0.211739   4.60165e-12     0.0793946        102624        103065        221230   8.43109e-12
    0.0243594       288.209       288.285      0.706356        10.597      -9.05701             0       16.2514     -0.674135             0       38.0961        17.118             0       33.5803             0             0      0.210738   3.91741e-12      0.083748        102622        103064        221994   7.17742e-12
     0.024527       288.209       288.282      0.580203       9.84035      -9.10582             0       15.8463     -0.734532             0       38.0353       17.3863             0       34.5075             0             0      0.209737   3.23316e-12     0.0881015        102620        103064        222757   5.92375e-12
    0.0246947        288.21       288.279      0.454049       9.08375      -9.15464             0       15.4412      -0.79493             0       37.9745       17.6545             0       35.4347             0             0      0.208735   2.54891e-12      0.092455        102618        103063        223521   4.67008e-12
    0.0248624        288.21       288.275      0.327896       8.32715      -9.20345             0       15.0361     -0.855327             0       37.9137       17.9228             0       36.3619             0             0      0.207734   1.86466e-12     0.0968084        102616        103063        224285   3.41641e-12
      0.02503       288.207       288.273      0.221243       7.63191      -9.26282             0       14.6469     -0.921885             0       37.8419       18.1543             0       37.3247             0             0      0.206729   1.28986e-12      0.101178        102614        103062        225057   2.36327e-12
    0.0251977       288.186       288.276      0.203967        7.2179      -9.37057             0       14.3305      -1.01668             0       37.7191       18.2173             0       38.4509             0             0      0.205706   1.21671e-12      0.105624        102611        103061        225870   2.22924e-12
    0.0253654       288.166       288.279      0.186691       6.80389      -9.47832             0       14.0141      -1.11147             0       37.5964       18.2802             0       39.5771             0             0      0.204684   1.14356e-12      0.110069        102608        103060        226682   2.09522e-12
     0.025533       288.145       288.282      0.169416       6.38988      -9.58606             0       13.6977      -1.20626             0       37.4737       18.3432             0       40.7033             0             0      0.203661   1.07041e-12      0.114514        102606        103059        227495   1.96119e-12
    0.0257007       288.125       288.285       0.15214       5.97588      -9.69381             0       13.3813      -1.30106             0       37.3509       18.4062             0       41.8295             0             0      0.202639    9.9726e-13       0.11896        102603        103058        228307   1.82717e-12
    0.0258684       288.104       288.288      0.134864       5.56187      -9.80156             0       13.0648      -1.39585             0       37.2282       18.4692             0       42.9556             0             0      0.201616   9.24109e-13      0.123405        102600        103057        229120   1.69314e-12
     0.026036       288.082       288.291      0.120999       5.19895      -9.91681             0       12.7602      -1.49477             0       36.9969       18.4962             0       44.1144             0             0      0.200714   8.51385e-13      0.127329        102598        103056        229953    1.5599e-12
    0.0262037       288.053       288.293      0.119595       5.02263      -10.0595             0       12.4985       -1.6088             0       36.3693       18.3915             0       45.3923             0             0      0.200249   7.80217e-13      0.129351        102595        103055        230862    1.4295e-12
    0.0263714       288.024       288.295      0.118191       4.84632      -10.2021             0       12.2368      -1.72282             0       35.7416       18.2869             0       46.6702             0             0      0.199784    7.0905e-13      0.131372        102592        103054        231771   1.29911e-12
     0.026539       287.995       288.296      0.116787          4.67      -10.3448             0       11.9751      -1.83684             0       35.1139       18.1822             0        47.948             0             0      0.199319   6.37883e-13      0.133394        102589        103053        232680   1.16872e-12
    0.0267067       287.966       288.298      0.115382       4.49369      -10.4875             0       11.7134      -1.95086             0       34.4863       18.0776             0       49.2259             0             0      0.198854   5.66715e-13      0.135415        102586        103051        233589   1.03833e-12
    0.0268744       287.937         288.3      0.113978       4.31738      -10.6302             0       11.4517      -2.06488             0       33.8586       17.9729             0       50.5037             0             0      0.198389   4.95548e-13      0.137436        102584        103050        234498   9.07936e-13
     0.027042        287.91       288.302      0.113006       4.13076       -10.773             0       11.1836      -2.18061             0        33.203       17.8127             0        51.806             0             0      0.198037   4.29909e-13      0.138967        102581        103049        235419   7.87674e-13
    0.0272097       287.886       288.302      0.113325       3.91335      -10.9162             0       10.8963      -2.30144             0        32.464       17.4864             0       53.1812             0             0      0.198023    3.8079e-13       0.13903        102578        103047        236376   6.97678e-13
    0.0273774       287.863       288.303      0.113644       3.69595      -11.0595             0       10.6091      -2.42227             0        31.725       17.1601             0       54.5563             0             0      0.198008    3.3167e-13      0.139093        102575        103046        237332   6.07682e-13
     0.027545        287.84       288.303      0.113963       3.47854      -11.2028             0       10.3219      -2.54311             0       30.9859       16.8339             0       55.9315             0             0      0.197994   2.82551e-13      0.139156        102573        103044        238289   5.17687e-13
    0.0277127       287.817       288.304      0.114281       3.26114       -11.346             0       10.0347      -2.66394             0       30.2469       16.5076             0       57.3066             0             0      0.197979   2.33432e-13      0.139219        102570        103043        239245   4.27691e-13
    0.0278804       287.793       288.304        0.1146       3.04373      -11.4893             0       9.74747      -2.78477             0       29.5079       16.1813             0       58.6818             0             0      0.197965   1.84313e-13      0.139282        102567        103041        240201   3.37695e-13
     0.028048       287.773       288.305      0.114994       2.79497      -11.6246             0       9.45604      -2.90806             0       28.7851       15.8038             0       60.0378             0             0      0.197985   1.43399e-13      0.139194        102564        103039        241133   2.62733e-13
    0.0282157       287.758       288.305      0.115574       2.46812        -11.74             0       9.15413      -3.03747             0       28.1025       15.2989             0       61.3459             0             0      0.198091   1.22913e-13       0.13873        102562        103038        242003   2.25199e-13
    0.0283834       287.744       288.306      0.116153       2.14128      -11.8554             0       8.85222      -3.16688             0       27.4199        14.794             0        62.654             0             0      0.198198   1.02427e-13      0.138267        102559        103036        242873   1.87665e-13
    0.0285511       287.729       288.307      0.116733       1.81443      -11.9708             0       8.55031      -3.29629             0       26.7373        14.289             0       63.9622             0             0      0.198305   8.19405e-14      0.137803        102557        103034        243743    1.5013e-13
    0.0287187       287.715       288.307      0.117313       1.48759      -12.0862             0       8.24839       -3.4257             0       26.0547       13.7841             0       65.2703             0             0      0.198412   6.14545e-14      0.137339        102554        103033        244614   1.12596e-13
    0.0288864       287.701       288.308      0.117893       1.16074      -12.2016             0       7.94648      -3.55511             0       25.3721       13.2792             0       66.5785             0             0      0.198518   4.09684e-14      0.136875        102552        103031        245484   7.50618e-14
    0.0290541       287.689       288.308      0.118457      0.834665      -12.3086             0       7.64574      -3.68632             0       24.7227       12.7355             0       67.7994             0             0      0.198604   2.59166e-14        0.1365        102550        103030        246281    4.7484e-14
    0.0292217       287.684       288.308      0.118989      0.510199      -12.3979             0       7.34746      -3.82129             0       24.1433       12.1105             0       68.8373             0             0      0.198648   2.22867e-14      0.136312        102547        103028        246926   4.08333e-14
    0.0293894       287.679       288.308       0.11952      0.185733      -12.4872             0       7.04917      -3.95625             0       23.5638       11.4855             0       69.8751             0             0      0.198691   1.86568e-14      0.136124        102545        103026        247572   3.41827e-14
    0.0295571       287.674       288.308      0.120052     -0.138733      -12.5765             0       6.75089      -4.09122             0       22.9843       10.8605             0       70.9129             0             0      0.198734   1.50269e-14      0.135936        102542        103025        248217    2.7532e-14
    0.0297247       287.669       288.308      0.120583     -0.463199      -12.6658             0       6.45261      -4.22619             0       22.4049       10.2355             0       71.9507             0             0      0.198777    1.1397e-14      0.135748        102540        103023        248862   2.08814e-14
    0.0298924       287.664       288.309      0.121115     -0.787665       -12.755             0       6.15433      -4.36116             0       21.8254       9.61047             0       72.9885             0             0      0.198821   7.76708e-15       0.13556        102538        103022        249507   1.42307e-14
    0.0300601       287.661       288.308      0.121626      -1.08324      -12.8368             0       5.86074      -4.49588             0       21.3308       8.96584             0       73.8832             0             0       0.19881   5.21178e-15      0.135604        102535        103020        250044   9.54896e-15
    0.0302277       287.661       288.308      0.122099      -1.32704       -12.905             0       5.57557      -4.63015             0       20.9883       8.28605             0       74.5214             0             0      0.198704   4.58182e-15      0.136066        102533        103019        250389   8.39474e-15
    0.0303954       287.661       288.308      0.122572      -1.57085      -12.9732             0        5.2904      -4.76442             0       20.6457       7.60626             0       75.1597             0             0      0.198598   3.95185e-15      0.136528        102530        103018        250734   7.24053e-15
    0.0305631        287.66       288.307      0.123045      -1.81466      -13.0414             0       5.00523      -4.89869             0       20.3031       6.92648             0       75.7979             0             0      0.198492   3.32189e-15       0.13699        102527        103017        251079   6.08631e-15
    0.0307307        287.66       288.307      0.123518      -2.05846      -13.1096             0       4.72006      -5.03295             0       19.9605       6.24669             0       76.4361             0             0      0.198385   2.69192e-15      0.137452        102525        103016        251424    4.9321e-15
    0.0308984        287.66       288.306      0.123991      -2.30227      -13.1778             0        4.4349      -5.16722             0        19.618        5.5669             0       77.0744             0             0      0.198279   2.06195e-15      0.137914        102522        103014        251769   3.77788e-15
    0.0310661        287.66       288.306      0.124414      -2.52649       -13.236             0       4.15645      -5.29812             0       19.3882       4.90056             0       77.5503             0             0      0.198112   1.62997e-15      0.138642        102519        103013        252015   2.98641e-15
    0.0312337       287.662       288.306      0.124759       -2.7206      -13.2789             0       3.88835      -5.42382             0       19.3317       4.25493             0       77.7767             0             0       0.19785   1.50246e-15       0.13978        102515        103012        252108   2.75279e-15
    0.0314014       287.663       288.306      0.125104       -2.9147      -13.3218             0       3.62026      -5.54952             0       19.2753       3.60929             0       78.0031             0             0      0.197588   1.37495e-15      0.140918        102511        103012        252202   2.51916e-15
    0.0315691       287.664       288.305      0.125449       -3.1088      -13.3647             0       3.35216      -5.67522             0       19.2189       2.96366             0       78.2295             0             0      0.197327   1.24744e-15      0.142056        102507        103011        252295   2.28554e-15
    0.0317367       287.665       288.305      0.125794       -3.3029      -13.4076             0       3.08406      -5.80092             0       19.1625       2.31802             0       78.4559             0             0      0.197065   1.11993e-15      0.143194        102503        103010        252389   2.05191e-15
    0.0319044       287.666       288.305      0.126139      -3.49701      -13.4505             0       2.81596      -5.92662             0        19.106       1.67238             0       78.6823             0             0      0.196803   9.92415e-16      0.144332        102499        103009        252482   1.81829e-15
    0.0320721       287.667       288.305      0.126389      -3.67198      -13.4777             0       2.55512      -6.04642             0        19.153       1.07082             0       78.7619             0             0      0.196472   9.16876e-16      0.145773        102494        103008        252496   1.67989e-15
    0.0322397       287.668       288.304      0.126514      -3.82159      -13.4841             0       2.30389       -6.1584             0        19.337        0.5277             0       78.6468             0             0      0.196047   9.10273e-16      0.147618        102489        103008        252405   1.66779e-15
    0.0324074       287.668       288.304      0.126638       -3.9712      -13.4905             0       2.05267      -6.27038             0       19.5211    -0.0154157             0       78.5317             0             0      0.195623    9.0367e-16      0.149463        102483        103007        252313   1.65569e-15
    0.0325751       287.669       288.304      0.126763      -4.12081      -13.4969             0       1.80144      -6.38235             0       19.7051     -0.558531             0       78.4165             0             0      0.195199   8.97068e-16      0.151308        102478        103007        252221    1.6436e-15
    0.0327427       287.669       288.304      0.126888      -4.27042      -13.5033             0       1.55022      -6.49433             0       19.8892      -1.10165             0       78.3014             0             0      0.194774   8.90465e-16      0.153153        102472        103006        252130    1.6315e-15
    0.0329104        287.67       288.303      0.127012      -4.42003      -13.5098             0       1.29899      -6.60631             0       20.0732      -1.64476             0       78.1863             0             0       0.19435   8.83862e-16      0.154998        102467        103005        252038    1.6194e-15
    0.0330781        287.67       288.303      0.127122      -4.53271      -13.4976             0       1.05707      -6.71091             0       20.2794      -2.08972             0       77.9358             0             0      0.193933   8.81301e-16      0.156812        102461        103005        251911   1.61471e-15
    0.0332457       287.669       288.302      0.127213      -4.60302      -13.4642             0      0.825816      -6.80706             0       20.5111      -2.42206             0       77.5298             0             0      0.193523   8.83379e-16      0.158592        102454        103005        251744   1.61851e-15
    0.0334134       287.667       288.302      0.127305      -4.67333      -13.4308             0      0.594564       -6.9032             0       20.7428      -2.75439             0       77.1239             0             0      0.193114   8.85456e-16      0.160372        102448        103005        251577   1.62232e-15
    0.0335811       287.666       288.302      0.127397      -4.74364      -13.3974             0      0.363312      -6.99934             0       20.9745      -3.08672             0        76.718             0             0      0.192705   8.87533e-16      0.162151        102441        103004        251410   1.62613e-15
    0.0337487       287.665       288.301      0.127489      -4.81395      -13.3641             0       0.13206      -7.09548             0       21.2062      -3.41906             0        76.312             0             0      0.192295   8.89611e-16      0.163931        102435        103004        251243   1.62993e-15
    0.0339164       287.663       288.301       0.12758      -4.88426      -13.3307             0    -0.0991921      -7.19162             0       21.4379      -3.75139             0       75.9061             0             0      0.191886   8.91688e-16      0.165711        102428        103004        251076   1.63374e-15
    0.0340841       287.661         288.3      0.127692      -4.91395      -13.2711             0     -0.318595      -7.27866             0       21.6145      -3.94806             0       75.3803             0             0      0.191594    8.9423e-16       0.16698        102422        103004        250912    1.6384e-15
    0.0342518       287.658       288.299      0.127822      -4.90326      -13.1857             0     -0.526219      -7.35665             0       21.7361      -4.00988             0       74.7353             0             0      0.191419   8.97234e-16      0.167742        102416        103004        250752    1.6439e-15
    0.0344194       287.655       288.299      0.127952      -4.89257      -13.1002             0     -0.733842      -7.43463             0       21.8578      -4.07169             0       74.0903             0             0      0.191244   9.00237e-16      0.168503        102409        103004        250592    1.6494e-15
    0.0345871       287.652       288.298      0.128083      -4.88188      -13.0147             0     -0.941466      -7.51262             0       21.9795      -4.13351             0       73.4452             0             0      0.191069   9.03241e-16      0.169265        102403        103004        250433   1.65491e-15
    0.0347548       287.649       288.298      0.128213      -4.87119      -12.9293             0      -1.14909      -7.59061             0       22.1012      -4.19533             0       72.8002             0             0      0.190894   9.06245e-16      0.170027        102397        103004        250273   1.66041e-15
    0.0349224       287.646       288.297      0.128344       -4.8605      -12.8438             0      -1.35671      -7.66859             0       22.2229      -4.25715             0       72.1552             0             0      0.190718   9.09249e-16      0.170788        102391        103004        250113   1.66591e-15
    0.0350901       287.644       288.297      0.128546       -4.8113      -12.7289             0        -1.553       -7.7348             0       22.2813      -4.19735             0       71.4019             0             0      0.190624   9.11994e-16      0.171197        102386        103005        249982   1.67094e-15
    0.0352578       287.641       288.296      0.128812      -4.72893      -12.5888             0      -1.73952      -7.79088             0       22.2854      -4.03283             0       70.5554             0             0        0.1906   9.14515e-16      0.171302        102381        103005        249875   1.67556e-15