#           y             T         TMean   TPrime2Mean           U_x           U_y           U_z       UMean_x       UMean_y       UMean_z UPrime2Mea... UPrime2Mea... UPrime2Mea... UPrime2Mea... UPrime2Mea... UPrime2Mea...            O2           H2O          C3H8             p         pMean   pPrime2Mean           CO2
         0.03       288.076       288.516      0.304281       9.91546      0.195993             0       3.82162       1.05661             0       18.5649      -1.57081             0       52.1667             0             0      0.194266   4.87392e-13      0.155367        102801        103096        277629   8.92993e-13
    0.0301702       288.072       288.515      0.301334       9.77188      0.358508             0       3.78887       1.09298             0       18.6174      -1.55322             0       52.0752             0             0      0.193745   4.52703e-13      0.157629        102803        103096        277140   8.29436e-13
    0.0303403       288.069       288.513      0.298388        9.6283      0.521023             0       3.75611       1.12934             0         18.67      -1.53564             0       51.9837             0             0      0.193225   4.18014e-13       0.15989        102806        103096        276652   7.65879e-13
    0.0305105       288.065       288.512      0.295441       9.48473      0.683538             0       3.72335       1.16571             0       18.7225      -1.51806             0       51.8922             0             0      0.192705   3.83325e-13      0.162152        102808        103096        276164   7.02323e-13
    0.0306807       288.062       288.511      0.292494       9.34115      0.846053             0        3.6906       1.20208             0        18.775      -1.50048             0       51.8008             0             0      0.192185   3.48636e-13      0.164414        102811        103097        275676   6.38766e-13
    0.0308509       288.058        288.51      0.289547       9.19757       1.00857             0       3.65784       1.23844             0       18.8275       -1.4829             0       51.7093             0             0      0.191665   3.13947e-13      0.166676        102814        103097        275187   5.75209e-13
     0.031021       288.055       288.508      0.286719        9.0516        1.1787             0       3.62726       1.27517             0       18.9004      -1.46106             0       51.6054             0             0      0.191146   2.81129e-13      0.168933        102816        103097        274695    5.1508e-13
    0.0311912       288.055       288.507      0.284726       8.88869        1.4029             0       3.61209       1.31445             0       19.1177      -1.40897             0       51.4141             0             0      0.190633   2.61587e-13      0.171163        102818        103098        274170   4.79276e-13
    0.0313614       288.054       288.505      0.282734       8.72578       1.62709             0       3.59693       1.35372             0       19.3351      -1.35688             0       51.2227             0             0       0.19012   2.42045e-13      0.173393        102820        103098        273646   4.43471e-13
    0.0315315       288.053       288.503      0.280742       8.56287       1.85129             0       3.58176         1.393             0       19.5524      -1.30479             0       51.0314             0             0      0.189607   2.22503e-13      0.175623        102822        103099        273122   4.07667e-13
    0.0317017       288.053       288.501      0.278749       8.39995       2.07548             0       3.56659       1.43228             0       19.7698      -1.25271             0         50.84             0             0      0.189094   2.02961e-13      0.177853        102824        103099        272598   3.71862e-13
    0.0318719       288.052         288.5      0.276757       8.23704       2.29968             0       3.55142       1.47156             0       19.9871      -1.20062             0       50.6486             0             0      0.188581   1.83419e-13      0.180083        102827        103100        272074   3.36058e-13
     0.032042       288.053       288.498      0.275062       8.07254       2.53442             0       3.53968        1.5109             0       20.2516      -1.13499             0       50.4366             0             0      0.188074   1.66292e-13      0.182288        102829        103100        271549   3.04678e-13
    0.0322122       288.055       288.496      0.274274       7.90319       2.80129             0       3.53838       1.55046             0         20.66       -1.0281             0       50.1615             0             0      0.187585   1.56525e-13      0.184416        102830        103101        271023   2.86782e-13
    0.0323824       288.058       288.495      0.273486       7.73385       3.06817             0       3.53708       1.59001             0       21.0683     -0.921215             0       49.8864             0             0      0.187095   1.46757e-13      0.186544        102831        103101        270498   2.68887e-13
    0.0325526       288.061       288.493      0.272697        7.5645       3.33504             0       3.53578       1.62956             0       21.4766     -0.814326             0       49.6113             0             0      0.186606    1.3699e-13      0.188673        102833        103102        269972   2.50991e-13
    0.0327227       288.063       288.491      0.271909       7.39516       3.60192             0       3.53447       1.66911             0        21.885     -0.707438             0       49.3362             0             0      0.186116   1.27223e-13      0.190801        102834        103102        269446   2.33096e-13
    0.0328929       288.066        288.49       0.27112       7.22581       3.86879             0       3.53317       1.70866             0       22.2933     -0.600549             0       49.0612             0             0      0.185627   1.17456e-13       0.19293        102835        103103        268921   2.15201e-13
    0.0330631        288.07       288.488        0.2707       7.05782       4.14136             0       3.53475       1.74762             0       22.8012     -0.473788             0       48.7615             0             0      0.185149   1.09578e-13      0.195005        102837        103103        268402   2.00767e-13
    0.0332332       288.076       288.486      0.270903       6.89212       4.42358             0       3.54123       1.78558             0       23.4782     -0.313275             0       48.4201             0             0      0.184692   1.04908e-13      0.196992        102837        103104        267897   1.92212e-13
    0.0334034       288.082       288.485      0.271107       6.72643        4.7058             0        3.5477       1.82353             0       24.1552     -0.152761             0       48.0788             0             0      0.184235   1.00239e-13      0.198978        102838        103105        267391   1.83657e-13
    0.0335736       288.088       288.483       0.27131       6.56073       4.98802             0       3.55417       1.86148             0       24.8322    0.00775164             0       47.7374             0             0      0.183779   9.55701e-14      0.200965        102838        103105        266886   1.75102e-13
    0.0337437       288.094       288.481      0.271514       6.39503       5.27025             0       3.56065       1.89943             0       25.5092      0.168265             0        47.396             0             0      0.183322   9.09009e-14      0.202951        102839        103106        266380   1.66547e-13
    0.0339139       288.101        288.48      0.271718       6.22934       5.55247             0       3.56712       1.93738             0       26.1862      0.328778             0       47.0546             0             0      0.182865   8.62318e-14      0.204938        102840        103107        265875   1.57993e-13
    0.0340841       288.108       288.478      0.272257       6.06892       5.83012             0       3.57625       1.97353             0       26.9945      0.511318             0       46.6825             0             0       0.18246    8.2681e-14      0.206696        102840        103108        265386   1.51487e-13
    0.0342543       288.116       288.477      0.273141        5.9139       6.10308             0       3.58811       2.00784             0       27.9372       0.71641             0       46.2787             0             0      0.182109   8.02752e-14      0.208222        102840        103108        264915   1.47079e-13
    0.0344244       288.124       288.475      0.274025       5.75888       6.37605             0       3.59996       2.04215             0       28.8798      0.921501             0        45.875             0             0      0.181759   7.78695e-14      0.209747        102840        103109        264443   1.42671e-13
    0.0345946       288.132       288.474      0.274909       5.60387       6.64901             0       3.61181       2.07646             0       29.8225       1.12659             0       45.4712             0             0      0.181408   7.54637e-14      0.211272        102840        103110        263972   1.38264e-13
    0.0347648       288.139       288.472      0.275793       5.44885       6.92198             0       3.62367       2.11077             0       30.7652       1.33168             0       45.0675             0             0      0.181057    7.3058e-14      0.212798        102839        103111        263500   1.33856e-13
    0.0349349       288.147       288.471      0.276676       5.29383       7.19494             0       3.63552       2.14508             0       31.7078       1.53678             0       44.6637             0             0      0.180706   7.06522e-14      0.214323        102839        103112        263029   1.29448e-13
    0.0351051       288.158        288.47      0.277542       5.14961       7.45177             0       3.65112       2.17625             0       32.7363       1.74686             0        44.223             0             0      0.180428   6.89249e-14      0.215532        102839        103113        262577   1.26283e-13
    0.0352753       288.171       288.469      0.278397       5.01206        7.6986             0       3.66905       2.20546             0       33.8178       1.96004             0       43.7593             0             0      0.180195   6.76176e-14      0.216544        102838        103113        262138   1.23888e-13
    0.0354454       288.183       288.469      0.279251       4.87452       7.94543             0       3.68697       2.23467             0       34.8993       2.17322             0       43.2956             0             0      0.179962   6.63103e-14      0.217556        102837        103114        261700   1.21493e-13
    0.0356156       288.196       288.468      0.280106       4.73698       8.19226             0        3.7049       2.26389             0       35.9809       2.38639             0       42.8319             0             0       0.17973   6.50031e-14      0.218569        102837        103115        261261   1.19098e-13
    0.0357858       288.208       288.467       0.28096       4.59943        8.4391             0       3.72282        2.2931             0       37.0624       2.59957             0       42.3683             0             0      0.179497   6.36958e-14      0.219581        102836        103116        260822   1.16702e-13
     0.035956        288.22       288.467      0.281815       4.46189       8.68593             0       3.74075       2.32231             0        38.144       2.81275             0       41.9046             0             0      0.179264   6.23885e-14      0.220594        102835        103117        260383   1.14307e-13
    0.0361261       288.237       288.466      0.281939       4.34133       8.90559             0       3.76304       2.34698             0        39.228       2.99267             0       41.4087             0             0      0.179077   6.13738e-14      0.221408        102835        103118        259989   1.12448e-13
    0.0362963       288.255       288.466      0.281808       4.22669       9.11577             0       3.78686       2.37006             0       40.3129       3.16098             0       40.9015             0             0      0.178905   6.04613e-14      0.222153        102834        103119        259609   1.10776e-13
    0.0364665       288.274       288.466      0.281678       4.11206       9.32596             0       3.81068       2.39314             0       41.3978       3.32929             0       40.3944             0             0      0.178734   5.95488e-14      0.222898        102833        103120        259230   1.09105e-13
    0.0366366       288.292       288.466      0.281547       3.99742       9.53614             0       3.83449       2.41623             0       42.4826        3.4976             0       39.8873             0             0      0.178563   5.86363e-14      0.223643        102832        103121        258851   1.07433e-13
    0.0368068        288.31       288.466      0.281417       3.88279       9.74632             0       3.85831       2.43931             0       43.5675       3.66591             0       39.3801             0             0      0.178391   5.77238e-14      0.224388        102831        103122        258472   1.05761e-13
     0.036977       288.328       288.466      0.281286       3.76815        9.9565             0       3.88213       2.46239             0       44.6524       3.83422             0        38.873             0             0       0.17822   5.68114e-14      0.225133        102830        103123        258093   1.04089e-13
    0.0371471       288.352       288.467      0.279772        3.6812       10.1253             0       3.91092       2.47825             0       45.6349       3.96457             0        38.337             0             0      0.178106   5.57384e-14      0.225629        102829        103125        257770   1.02123e-13
    0.0373173       288.377       288.467      0.278041       3.59858       10.2877             0       3.94049       2.49299             0       46.6013       4.08898             0       37.7966             0             0      0.178001   5.46404e-14      0.226085        102828        103126        257455   1.00111e-13
    0.0374875       288.402       288.468       0.27631       3.51596       10.4501             0       3.97006       2.50773             0       47.5678       4.21339             0       37.2561             0             0      0.177896   5.35423e-14      0.226541        102827        103127        257141   9.80996e-14
    0.0376577       288.427       288.468      0.274579       3.43333       10.6125             0       3.99962       2.52247             0       48.5343        4.3378             0       36.7156             0             0      0.177791   5.24443e-14      0.226997        102826        103128        256826   9.60877e-14
    0.0378278       288.451       288.469      0.272848       3.35071       10.7749             0       4.02919        2.5372             0       49.5007       4.46221             0       36.1752             0             0      0.177686   5.13463e-14      0.227453        102826        103129        256511   9.40759e-14
     0.037998       288.476       288.469      0.271118       3.26809       10.9373             0       4.05876       2.55194             0       50.4672       4.58662             0       35.6347             0             0      0.177581   5.02482e-14      0.227909        102825        103130        256197   9.20641e-14
    0.0381682       288.506        288.47      0.267762       3.22803       11.0405             0       4.09461       2.55606             0       51.2123       4.72876             0       35.0578             0             0      0.177547   4.86324e-14      0.228059        102824        103131        255952   8.91037e-14
    0.0383383       288.535        288.47      0.264387       3.18847       11.1429             0       4.13053       2.56005             0       51.9547       4.87112             0       34.4805             0             0      0.177514   4.70105e-14      0.228204        102824        103133        255709    8.6132e-14
    0.0385085       288.565        288.47      0.261012       3.14891       11.2454             0       4.16645       2.56404             0       52.6971       5.01347             0       33.9032             0             0       0.17748   4.53886e-14       0.22835        102823        103134        255465   8.31603e-14
    0.0386787       288.595        288.47      0.257637       3.10935       11.3479             0       4.20237       2.56803             0       53.4396       5.15583             0       33.3259             0             0      0.177447   4.37666e-14      0.228495        102823        103135        255222   8.01886e-14
    0.0388488       288.624       288.471      0.254261       3.06979       11.4504             0       4.23829       2.57201             0        54.182       5.29818             0       32.7486             0             0      0.177413   4.21447e-14      0.228641        102822        103136        254978   7.72169e-14
     0.039019       288.653       288.471      0.250785       3.03624        11.545             0       4.27471       2.57475             0       54.8969       5.44713             0       32.1663             0             0      0.177382   4.05107e-14      0.228775        102822        103138        254742   7.42231e-14
    0.0391892       288.679       288.471      0.246503       3.05037        11.577             0       4.31512       2.56755             0       55.3932       5.64844             0       31.5448             0             0      0.177372   3.87809e-14      0.228821        102822        103139        254567   7.10539e-14
    0.0393594       288.705       288.471      0.242221        3.0645       11.6089             0       4.35553       2.56035             0       55.8895       5.84975             0       30.9234             0             0      0.177361   3.70512e-14      0.228867        102823        103140        254392   6.78847e-14
    0.0395295       288.731        288.47       0.23794       3.07863       11.6409             0       4.39594       2.55315             0       56.3859       6.05106             0       30.3019             0             0       0.17735   3.53215e-14      0.228913        102823        103141        254217   6.47155e-14
    0.0396997       288.757        288.47      0.233658       3.09276       11.6728             0       4.43635       2.54595             0       56.8822       6.25237             0       29.6804             0             0       0.17734   3.35917e-14      0.228958        102823        103143        254042   6.15463e-14
    0.0398699       288.783        288.47      0.229376       3.10689       11.7048             0       4.47676       2.53875             0       57.3785       6.45367             0        29.059             0             0      0.177329    3.1862e-14      0.229004        102824        103144        253867   5.83771e-14
      0.04004       288.807       288.469      0.225191       3.13595       11.7182             0       4.51754       2.52956             0       57.8272       6.66132             0       28.4296             0             0      0.177307   3.02388e-14      0.229103        102824        103145        253708   5.54032e-14
    0.0402102       288.826       288.469      0.221319       3.21355       11.6714             0       4.55953       2.51387             0        58.121       6.88957             0       27.7742             0             0      0.177245   2.89621e-14      0.229372        102826        103146        253602   5.30639e-14
    0.0403804       288.845       288.468      0.217447       3.29115       11.6246             0       4.60153       2.49819             0       58.4148       7.11782             0       27.1189             0             0      0.177183   2.76853e-14      0.229642        102828        103148        253497   5.07247e-14
    0.0405506       288.865       288.467      0.213575       3.36875       11.5778             0       4.64352        2.4825             0       58.7086       7.34607             0       26.4635             0             0      0.177121   2.64086e-14      0.229912        102829        103149        253391   4.83854e-14
    0.0407207       288.884       288.466      0.209703       3.44634        11.531             0       4.68551       2.46681             0       59.0024       7.57432             0       25.8082             0             0      0.177058   2.51318e-14      0.230182        102831        103150        253285   4.60462e-14
    0.0408909       288.903       288.465       0.20583       3.52394       11.4842             0        4.7275       2.45113             0       59.2961       7.80257             0       25.1528             0             0      0.176996   2.38551e-14      0.230451        102832        103152        253180    4.3707e-14
    0.0410611       288.921       288.464      0.202282       3.62426       11.4078             0       4.76915       2.43372             0       59.5424       8.01241             0       24.4957             0             0      0.176899   2.27461e-14      0.230874        102834        103153        253098   4.16751e-14
    0.0412312       288.936       288.463       0.19931       3.76516       11.2784             0       4.81019       2.41321             0       59.7036       8.18935             0       23.8356             0             0      0.176739   2.19369e-14       0.23157        102837        103154        253060   4.01926e-14
    0.0414014       288.951       288.462      0.196338       3.90607       11.1491             0       4.85124       2.39271             0       59.8648       8.36629             0       23.1754             0             0      0.176579   2.11278e-14      0.232265        102840        103156        253022     3.871e-14
    0.0415716       288.966       288.461      0.193366       4.04698       11.0198             0       4.89228       2.37221             0        60.026       8.54323             0       22.5152             0             0      0.176419   2.03186e-14      0.232961        102843        103157        252984   3.72275e-14
    0.0417417       288.981       288.459      0.190395       4.18788       10.8904             0       4.93332       2.35171             0       60.1872       8.72017             0        21.855             0             0      0.176259   1.95094e-14      0.233657        102846        103158        252946   3.57449e-14
    0.0419119       288.996       288.458      0.187423       4.32879       10.7611             0       4.97436       2.33121             0       60.3485       8.89711             0       21.1949             0             0      0.176099   1.87003e-14      0.234353        102849        103160        252908   3.42624e-14
    0.0420821       289.011       288.457      0.185018       4.49644       10.5934             0       5.01247       2.30936             0       60.4803       9.01724             0       20.5459             0             0      0.175886   1.79514e-14      0.235279        102852        103161        252894   3.28903e-14
    0.0422523       289.026       288.455      0.183222        4.6928       10.3844             0       5.04744       2.28607             0       60.5808       9.07641             0       19.9089             0             0      0.175616   1.72673e-14      0.236452        102856        103162        252906   3.16369e-14
    0.0424224       289.041       288.452      0.181425       4.88916       10.1754             0        5.0824       2.26278             0       60.6812       9.13557             0        19.272             0             0      0.175347   1.65832e-14      0.237625        102860        103164        252917   3.03835e-14
    0.0425926       289.055        288.45      0.179628       5.08552        9.9664             0       5.11737       2.23949             0       60.7816       9.19473             0       18.6351             0             0      0.175077   1.58991e-14      0.238799        102864        103165        252929   2.91301e-14
    0.0427628        289.07       288.448      0.177832       5.28188       9.75742             0       5.15234       2.21619             0        60.882        9.2539             0       17.9981             0             0      0.174807    1.5215e-14      0.239972        102867        103166        252941   2.78766e-14
    0.0429329       289.085       288.446      0.176035       5.47824       9.54843             0       5.18731        2.1929             0       60.9824       9.31306             0       17.3612             0             0      0.174537   1.45308e-14      0.241145        102871        103168        252953   2.66232e-14
    0.0431031       289.099       288.444      0.175091       5.70966       9.29139             0       5.21506       2.16767             0       61.0161       9.29402             0        16.739             0             0      0.174228   1.38305e-14      0.242487        102875        103169        252998   2.53401e-14
    0.0432733       289.112       288.441      0.174702        5.9639       9.00308             0       5.23813       2.14118             0       61.0063       9.22412             0       16.1263             0             0      0.173895   1.31197e-14      0.243938        102879        103170        253066   2.40377e-14
    0.0434434       289.125       288.438      0.174313       6.21813       8.71477             0        5.2612       2.11469             0       60.9966       9.15421             0       15.5137             0             0      0.173561   1.24088e-14      0.245389        102884        103171        253134   2.27353e-14
    0.0436136       289.138       288.434      0.173924       6.47237       8.42646             0       5.28427        2.0882             0       60.9869       9.08431             0        14.901             0             0      0.173227    1.1698e-14       0.24684        102888        103173        253201   2.14328e-14
    0.0437838       289.151       288.431      0.173535        6.7266       8.13816             0       5.30734       2.06171             0       60.9771        9.0144             0       14.2884             0             0      0.172893   1.09871e-14      0.248291        102892        103174        253269   2.01304e-14
     0.043954       289.164       288.428      0.173145       6.98084       7.84985             0       5.33041       2.03522             0       60.9674        8.9445             0       13.6757             0             0       0.17256   1.02763e-14      0.249742        102896        103175        253337    1.8828e-14
    0.0441241        289.17       288.424      0.173492       7.29635       7.49774             0       5.34438       2.00338             0       60.7685       8.80162             0       13.0829             0             0      0.172294   9.73809e-15      0.250897        102900        103176        253456    1.7842e-14
    0.0442943       289.174        288.42      0.174111        7.6346       7.12196             0       5.35498       1.96955             0       60.4993       8.63167             0       12.4975             0             0      0.172054   9.26399e-15      0.251942        102904        103178        253593   1.69734e-14
    0.0444645       289.177       288.416       0.17473       7.97285       6.74619             0       5.36558       1.93573             0       60.2302       8.46172             0       11.9121             0             0      0.171814    8.7899e-15      0.252986        102908        103179        253731   1.61047e-14
    0.0446346       289.181       288.412      0.175349       8.31109       6.37041             0       5.37618        1.9019             0        59.961       8.29177             0       11.3267             0             0      0.171573    8.3158e-15      0.254031        102912        103180        253869   1.52361e-14
    0.0448048       289.184       288.407      0.175968       8.64934       5.99464             0       5.38678       1.86808             0       59.6919       8.12182             0       10.7413             0             0      0.171333    7.8417e-15      0.255075        102916        103181        254006   1.43675e-14
     0.044975       289.188       288.403      0.176587       8.98759       5.61886             0       5.39738       1.83426             0       59.4227       7.95187             0       10.1559             0             0      0.171093    7.3676e-15       0.25612        102920        103182        254144   1.34988e-14
    0.0451451       289.177       288.398       0.17764       9.35552        5.2218             0       5.39843       1.79035             0       58.8845       7.71381             0       9.61257             0             0      0.171038   7.11271e-15      0.256357        102923        103184        254323   1.30318e-14
    0.0453153       289.163       288.392      0.178766       9.72857       4.82108             0       5.39785       1.74471             0       58.2999       7.46402             0       9.07645             0             0      0.171016   6.89561e-15      0.256455        102926        103185        254509    1.2634e-14
    0.0454855       289.149       288.386      0.179893       10.1016       4.42035             0       5.39726       1.69907             0       57.7154       7.21422             0       8.54032             0             0      0.170993    6.6785e-15      0.256552        102929        103186        254695   1.22363e-14