#           y             T         TMean   TPrime2Mean           U_x           U_y           U_z       UMean_x       UMean_y       UMean_z UPrime2Mea... UPrime2Mea... UPrime2Mea... UPrime2Mea... UPrime2Mea... UPrime2Mea...            O2           H2O          C3H8             p         pMean   pPrime2Mean           CO2
         0.04       287.932       288.355      0.116462       1.18236      -6.23247             0      -4.92364      -7.43679             0       20.4516        6.3796             0       34.8811             0             0      0.210236   1.15914e-15     0.0859323        102277        103043        250070   2.12376e-15
     0.039975       287.928       288.355      0.116646       1.15958      -6.24146             0      -4.91867      -7.44512             0       20.4786       6.28391             0       35.0322             0             0       0.21008   1.15799e-15     0.0866113        102277        103043        250042   2.12166e-15
    0.0399499       287.925       288.354       0.11683       1.13679      -6.25045             0       -4.9137      -7.45345             0       20.5057       6.18823             0       35.1832             0             0      0.209924   1.15685e-15     0.0872903        102278        103043        250015   2.11956e-15
    0.0399249       287.922       288.354      0.117014       1.11401      -6.25944             0      -4.90873      -7.46177             0       20.5327       6.09254             0       35.3342             0             0      0.209768    1.1557e-15     0.0879693        102278        103042        249987   2.11746e-15
    0.0398999       287.919       288.353      0.117198       1.09122      -6.26843             0      -4.90376       -7.4701             0       20.5597       5.99686             0       35.4853             0             0      0.209612   1.15456e-15     0.0886484        102279        103042        249960   2.11536e-15
    0.0398749       287.916       288.353      0.117382       1.06844      -6.27742             0      -4.89879      -7.47842             0       20.5867       5.90117             0       35.6363             0             0      0.209455   1.15341e-15     0.0893274        102279        103042        249933   2.11326e-15
    0.0398498       287.913       288.353      0.117566       1.04565      -6.28641             0      -4.89382      -7.48675             0       20.6138       5.80549             0       35.7874             0             0      0.209299   1.15227e-15     0.0900064        102280        103042        249905   2.11117e-15
    0.0398248        287.91       288.352       0.11775       1.02287       -6.2954             0      -4.88885      -7.49508             0       20.6408        5.7098             0       35.9384             0             0      0.209143   1.15112e-15     0.0906854        102280        103042        249878   2.10907e-15
    0.0397998       287.906       288.352      0.117934       1.00008      -6.30439             0      -4.88388       -7.5034             0       20.6678       5.61412             0       36.0894             0             0      0.208987   1.14998e-15     0.0913644        102280        103041        249850   2.10697e-15
    0.0397748       287.903       288.351      0.118118        0.9773      -6.31338             0      -4.87892      -7.51173             0       20.6949       5.51843             0       36.2405             0             0      0.208831   1.14883e-15     0.0920435        102281        103041        249823   2.10487e-15
    0.0397497         287.9       288.351      0.118302      0.954515      -6.32237             0      -4.87395      -7.52006             0       20.7219       5.42275             0       36.3915             0             0      0.208675   1.14768e-15     0.0927225        102281        103041        249796   2.10277e-15
    0.0397247       287.897       288.351      0.118485      0.931731      -6.33135             0      -4.86898      -7.52838             0       20.7489       5.32706             0       36.5426             0             0      0.208518   1.14654e-15     0.0934015        102282        103041        249768   2.10067e-15
    0.0396997       287.894        288.35      0.118669      0.908946      -6.34034             0      -4.86401      -7.53671             0        20.776       5.23138             0       36.6936             0             0      0.208362   1.14539e-15     0.0940805        102282        103041        249741   2.09857e-15
    0.0396747       287.891        288.35      0.118853      0.886161      -6.34933             0      -4.85904      -7.54504             0        20.803        5.1357             0       36.8447             0             0      0.208206   1.14425e-15     0.0947595        102283        103040        249713   2.09648e-15
    0.0396496       287.888        288.35      0.119037      0.863377      -6.35832             0      -4.85407      -7.55336             0         20.83       5.04001             0       36.9957             0             0       0.20805    1.1431e-15     0.0954386        102283        103040        249686   2.09438e-15
    0.0396246       287.885       288.349      0.119221      0.840592      -6.36731             0       -4.8491      -7.56169             0       20.8571       4.94433             0       37.1467             0             0      0.207894   1.14196e-15     0.0961176        102283        103040        249659   2.09228e-15
    0.0395996       287.881       288.349      0.119405      0.817808       -6.3763             0      -4.84413      -7.57002             0       20.8841       4.84864             0       37.2978             0             0      0.207738   1.14081e-15     0.0967966        102284        103040        249631   2.09018e-15
    0.0395746       287.878       288.348      0.119589      0.795023      -6.38529             0      -4.83916      -7.57834             0       20.9111       4.75296             0       37.4488             0             0      0.207581   1.13967e-15     0.0974756        102284        103040        249604   2.08808e-15
    0.0395495       287.875       288.348      0.119773      0.772238      -6.39428             0      -4.83419      -7.58667             0       20.9382       4.65727             0       37.5999             0             0      0.207425   1.13852e-15     0.0981546        102285        103039        249577   2.08598e-15
    0.0395245       287.872       288.348      0.119957      0.749454      -6.40327             0      -4.82922        -7.595             0       20.9652       4.56159             0       37.7509             0             0      0.207269   1.13738e-15     0.0988337        102285        103039        249549   2.08388e-15
    0.0394995       287.869       288.347      0.120141      0.726669      -6.41226             0      -4.82425      -7.60332             0       20.9922        4.4659             0       37.9019             0             0      0.207113   1.13623e-15     0.0995127        102286        103039        249522   2.08179e-15
    0.0394745       287.866       288.347      0.120325      0.703884      -6.42125             0      -4.81928      -7.61165             0       21.0192       4.37022             0        38.053             0             0      0.206957   1.13509e-15      0.100192        102286        103039        249494   2.07969e-15
    0.0394494       287.863       288.346      0.120509        0.6811      -6.43024             0      -4.81431      -7.61998             0       21.0463       4.27453             0        38.204             0             0      0.206801   1.13394e-15      0.100871        102286        103038        249467   2.07759e-15
    0.0394244       287.859       288.346      0.120693      0.658315      -6.43923             0      -4.80934       -7.6283             0       21.0733       4.17885             0       38.3551             0             0      0.206644   1.13279e-15       0.10155        102287        103038        249440   2.07549e-15
    0.0393994       287.856       288.346      0.120877      0.635531      -6.44822             0      -4.80437      -7.63663             0       21.1003       4.08316             0       38.5061             0             0      0.206488   1.13165e-15      0.102229        102287        103038        249412   2.07339e-15
    0.0393744       287.853       288.345      0.121061      0.612746      -6.45721             0       -4.7994      -7.64496             0       21.1274       3.98748             0       38.6572             0             0      0.206332    1.1305e-15      0.102908        102288        103038        249385   2.07129e-15
    0.0393493        287.85       288.345      0.121245      0.589961       -6.4662             0      -4.79444      -7.65328             0       21.1544       3.89179             0       38.8082             0             0      0.206176   1.12936e-15      0.103587        102288        103038        249357   2.06919e-15
    0.0393243       287.847       288.344      0.121429      0.567177      -6.47519             0      -4.78947      -7.66161             0       21.1814       3.79611             0       38.9592             0             0       0.20602   1.12821e-15      0.104266        102288        103037        249330    2.0671e-15
    0.0392993       287.844       288.344      0.121613      0.544392      -6.48418             0       -4.7845      -7.66994             0       21.2085       3.70042             0       39.1103             0             0      0.205863   1.12707e-15      0.104945        102289        103037        249303     2.065e-15
    0.0392743       287.841       288.344      0.121797      0.521607      -6.49317             0      -4.77953      -7.67826             0       21.2355       3.60474             0       39.2613             0             0      0.205707   1.12592e-15      0.105624        102289        103037        249275    2.0629e-15
    0.0392492       287.838       288.343      0.121981      0.498823      -6.50216             0      -4.77456      -7.68659             0       21.2625       3.50905             0       39.4124             0             0      0.205551   1.12478e-15      0.106303        102290        103037        249248    2.0608e-15
    0.0392242       287.834       288.343      0.122164      0.476038      -6.51115             0      -4.76959      -7.69492             0       21.2896       3.41337             0       39.5634             0             0      0.205395   1.12363e-15      0.106982        102290        103037        249221    2.0587e-15
    0.0391992       287.831       288.343      0.122348      0.453253      -6.52014             0      -4.76462      -7.70324             0       21.3166       3.31768             0       39.7144             0             0      0.205239   1.12249e-15      0.107661        102291        103036        249193    2.0566e-15
    0.0391742       287.828       288.342      0.122532      0.430469      -6.52913             0      -4.75965      -7.71157             0       21.3436         3.222             0       39.8655             0             0      0.205083   1.12134e-15       0.10834        102291        103036        249166    2.0545e-15
    0.0391491       287.825       288.342      0.122716      0.407684      -6.53811             0      -4.75468       -7.7199             0       21.3707       3.12631             0       40.0165             0             0      0.204926    1.1202e-15      0.109019        102291        103036        249138   2.05241e-15
    0.0391241       287.822       288.341        0.1229        0.3849       -6.5471             0      -4.74971      -7.72822             0       21.3977       3.03063             0       40.1676             0             0       0.20477   1.11905e-15      0.109698        102292        103036        249111   2.05031e-15
    0.0390991       287.819       288.341      0.123084      0.362115      -6.55609             0      -4.74474      -7.73655             0       21.4247       2.93494             0       40.3186             0             0      0.204614    1.1179e-15      0.110377        102292        103036        249084   2.04821e-15
    0.0390741       287.816       288.341      0.123268       0.33933      -6.56508             0      -4.73977      -7.74488             0       21.4517       2.83926             0       40.4697             0             0      0.204458   1.11676e-15      0.111056        102293        103035        249056   2.04611e-15
     0.039049       287.812        288.34      0.123452      0.316546      -6.57407             0       -4.7348       -7.7532             0       21.4788       2.74357             0       40.6207             0             0      0.204302   1.11561e-15      0.111735        102293        103035        249029   2.04401e-15
     0.039024       287.809        288.34      0.123636      0.293761      -6.58306             0      -4.72983      -7.76153             0       21.5058       2.64789             0       40.7717             0             0      0.204146   1.11447e-15      0.112414        102294        103035        249001   2.04191e-15
     0.038999       287.806       288.339      0.123817      0.270702      -6.59259             0      -4.72464      -7.76972             0       21.5325       2.55285             0       40.9233             0             0      0.203989    1.1133e-15      0.113095        102294        103035        248974   2.03977e-15
     0.038974       287.803       288.339      0.123928      0.241047      -6.61512             0      -4.71402      -7.77456             0       21.5519       2.47339             0       41.0868             0             0      0.203819   1.11155e-15      0.113833        102295        103035        248955   2.03656e-15
    0.0389489       287.801       288.339      0.124039      0.211392      -6.63765             0      -4.70341       -7.7794             0       21.5712       2.39394             0       41.2502             0             0       0.20365   1.10979e-15       0.11457        102295        103034        248936   2.03335e-15
    0.0389239       287.798       288.338       0.12415      0.181738      -6.66017             0       -4.6928      -7.78424             0       21.5905       2.31448             0       41.4137             0             0       0.20348   1.10804e-15      0.115308        102296        103034        248917   2.03014e-15
    0.0388989       287.795       288.338      0.124261      0.152083       -6.6827             0      -4.68218      -7.78909             0       21.6099       2.23503             0       41.5772             0             0       0.20331   1.10629e-15      0.116045        102296        103034        248897   2.02693e-15
    0.0388739       287.793       288.338      0.124372      0.122428      -6.70523             0      -4.67157      -7.79393             0       21.6292       2.15557             0       41.7407             0             0      0.203141   1.10454e-15      0.116783        102297        103034        248878   2.02372e-15
    0.0388488        287.79       288.337      0.124483     0.0927737      -6.72775             0      -4.66096      -7.79877             0       21.6486       2.07611             0       41.9042             0             0      0.202971   1.10279e-15       0.11752        102297        103034        248859   2.02051e-15
    0.0388238       287.787       288.337      0.124594      0.063119      -6.75028             0      -4.65034      -7.80361             0       21.6679       1.99666             0       42.0676             0             0      0.202801   1.10103e-15      0.118258        102298        103034        248840    2.0173e-15
    0.0387988       287.784       288.336      0.124705     0.0334643      -6.77281             0      -4.63973      -7.80845             0       21.6872        1.9172             0       42.2311             0             0      0.202632   1.09928e-15      0.118995        102298        103033        248820   2.01409e-15
    0.0387738       287.782       288.336      0.124816    0.00380967      -6.79533             0      -4.62912       -7.8133             0       21.7066       1.83774             0       42.3946             0             0      0.202462   1.09753e-15      0.119733        102299        103033        248801   2.01088e-15
    0.0387487       287.779       288.336      0.124927     -0.025845      -6.81786             0       -4.6185      -7.81814             0       21.7259       1.75829             0       42.5581             0             0      0.202293   1.09578e-15       0.12047        102299        103033        248782   2.00767e-15
    0.0387237       287.776       288.335      0.125038    -0.0554997      -6.84039             0      -4.60789      -7.82298             0       21.7453       1.67883             0       42.7216             0             0      0.202123   1.09403e-15      0.121208        102300        103033        248763   2.00446e-15
    0.0386987       287.774       288.335      0.125149    -0.0851543      -6.86291             0      -4.59728      -7.82782             0       21.7646       1.59937             0        42.885             0             0      0.201953   1.09227e-15      0.121945        102300        103033        248743   2.00125e-15
    0.0386737       287.771       288.335       0.12526     -0.114809      -6.88544             0      -4.58666      -7.83267             0       21.7839       1.51992             0       43.0485             0             0      0.201784   1.09052e-15      0.122683        102301        103032        248724   1.99804e-15
    0.0386486       287.768       288.334      0.125371     -0.144464      -6.90797             0      -4.57605      -7.83751             0       21.8033       1.44046             0        43.212             0             0      0.201614   1.08877e-15       0.12342        102301        103032        248705   1.99483e-15
    0.0386236       287.765       288.334      0.125482     -0.174118      -6.93049             0      -4.56544      -7.84235             0       21.8226         1.361             0       43.3755             0             0      0.201444   1.08702e-15      0.124158        102302        103032        248686   1.99162e-15
    0.0385986       287.763       288.333      0.125593     -0.203773      -6.95302             0      -4.55482      -7.84719             0        21.842       1.28155             0        43.539             0             0      0.201275   1.08527e-15      0.124895        102302        103032        248666   1.98841e-15
    0.0385736        287.76       288.333      0.125704     -0.233428      -6.97555             0      -4.54421      -7.85203             0       21.8613       1.20209             0       43.7024             0             0      0.201105   1.08351e-15      0.125633        102303        103032        248647    1.9852e-15
    0.0385485       287.757       288.333      0.125815     -0.263082      -6.99807             0      -4.53359      -7.85688             0       21.8806       1.12263             0       43.8659             0             0      0.200936   1.08176e-15       0.12637        102303        103031        248628   1.98199e-15
    0.0385235       287.755       288.332      0.125926     -0.292737       -7.0206             0      -4.52298      -7.86172             0          21.9       1.04318             0       44.0294             0             0      0.200766   1.08001e-15      0.127108        102303        103031        248609   1.97878e-15
    0.0384985       287.752       288.332      0.126037     -0.322392      -7.04313             0      -4.51237      -7.86656             0       21.9193       0.96372             0       44.1929             0             0      0.200596   1.07826e-15      0.127845        102304        103031        248589   1.97557e-15
    0.0384735       287.749       288.332      0.126148     -0.352046      -7.06565             0      -4.50175       -7.8714             0       21.9387      0.884263             0       44.3563             0             0      0.200427   1.07651e-15      0.128583        102304        103031        248570   1.97236e-15
    0.0384484       287.746       288.331      0.126259     -0.381701      -7.08818             0      -4.49114      -7.87624             0        21.958      0.804806             0       44.5198             0             0      0.200257   1.07476e-15       0.12932        102305        103031        248551   1.96915e-15
    0.0384234       287.744       288.331       0.12637     -0.411356      -7.11071             0      -4.48053      -7.88109             0       21.9773       0.72535             0       44.6833             0             0      0.200087     1.073e-15      0.130058        102305        103030        248532   1.96594e-15
    0.0383984       287.741       288.331      0.126481      -0.44101      -7.13323             0      -4.46991      -7.88593             0       21.9967      0.645893             0       44.8468             0             0      0.199918   1.07125e-15      0.130795        102306        103030        248512   1.96273e-15
    0.0383734       287.738        288.33      0.126592     -0.470665      -7.15576             0       -4.4593      -7.89077             0        22.016      0.566437             0       45.0103             0             0      0.199748    1.0695e-15      0.131533        102306        103030        248493   1.95952e-15
    0.0383483       287.736        288.33      0.126703      -0.50032      -7.17829             0      -4.44869      -7.89561             0       22.0353       0.48698             0       45.1737             0             0      0.199578   1.06775e-15       0.13227        102307        103030        248474   1.95631e-15
    0.0383233       287.733       288.329      0.126813     -0.529974      -7.20081             0      -4.43807      -7.90046             0       22.0547      0.407524             0       45.3372             0             0      0.199409     1.066e-15      0.133008        102307        103030        248455    1.9531e-15
    0.0382983        287.73       288.329      0.126924     -0.559629      -7.22334             0      -4.42746       -7.9053             0        22.074      0.328067             0       45.5007             0             0      0.199239   1.06424e-15      0.133745        102308        103030        248435   1.94989e-15
    0.0382733       287.727       288.329      0.127035     -0.589284      -7.24587             0      -4.41685      -7.91014             0       22.0934       0.24861             0       45.6642             0             0       0.19907   1.06249e-15      0.134483        102308        103029        248416   1.94668e-15
    0.0382482       287.725       288.328      0.127146     -0.618938      -7.26839             0      -4.40623      -7.91498             0       22.1127      0.169154             0       45.8277             0             0        0.1989   1.06074e-15       0.13522        102309        103029        248397   1.94347e-15
    0.0382232       287.722       288.328      0.127257     -0.648593      -7.29092             0      -4.39562      -7.91982             0        22.132     0.0896971             0       45.9911             0             0       0.19873   1.05899e-15      0.135958        102309        103029        248378   1.94026e-15
    0.0381982       287.719       288.328      0.127368     -0.678248      -7.31345             0      -4.38501      -7.92467             0       22.1514     0.0102406             0       46.1546             0             0      0.198561   1.05724e-15      0.136695        102310        103029        248358   1.93705e-15
    0.0381732       287.717       288.327      0.127479     -0.707902      -7.33597             0      -4.37439      -7.92951             0       22.1707     -0.069216             0       46.3181             0             0      0.198391   1.05548e-15      0.137433        102310        103029        248339   1.93384e-15
    0.0381481       287.714       288.327       0.12759     -0.737557       -7.3585             0      -4.36378      -7.93435             0       22.1901     -0.148673             0       46.4816             0             0      0.198221   1.05373e-15       0.13817        102311        103028        248320   1.93063e-15
    0.0381231       287.711       288.326      0.127701     -0.767212      -7.38103             0      -4.35316      -7.93919             0       22.2094     -0.228129             0       46.6451             0             0      0.198052   1.05198e-15      0.138908        102311        103028        248301   1.92742e-15
    0.0380981       287.708       288.326      0.127812     -0.796866      -7.40355             0      -4.34255      -7.94404             0       22.2287     -0.307586             0       46.8085             0             0      0.197882   1.05023e-15      0.139645        102312        103028        248281   1.92421e-15
    0.0380731       287.706       288.326      0.127923     -0.826521      -7.42608             0      -4.33194      -7.94888             0       22.2481     -0.387042             0        46.972             0             0      0.197713   1.04848e-15      0.140383        102312        103028        248262     1.921e-15
     0.038048       287.703       288.325      0.128034     -0.856176      -7.44861             0      -4.32132      -7.95372             0       22.2674     -0.466499             0       47.1355             0             0      0.197543   1.04672e-15       0.14112        102313        103028        248243   1.91779e-15
     0.038023         287.7       288.325      0.128145      -0.88583      -7.47113             0      -4.31071      -7.95856             0       22.2868     -0.545956             0        47.299             0             0      0.197373   1.04497e-15      0.141858        102313        103027        248224   1.91458e-15
     0.037998       287.698       288.325       0.12825     -0.915692      -7.49418             0      -4.29962      -7.96306             0       22.3045     -0.623661             0       47.4629             0             0      0.197208   1.04323e-15      0.142576        102314        103027        248205    1.9114e-15
     0.037973       287.696       288.324      0.128289     -0.947939      -7.52323             0       -4.2831      -7.96363             0        22.304     -0.681224             0       47.6318             0             0      0.197095   1.04166e-15      0.143067        102314        103027        248195   1.90852e-15
    0.0379479       287.695       288.324      0.128327     -0.980186      -7.55228             0      -4.26658      -7.96421             0       22.3036     -0.738787             0       47.8008             0             0      0.196982   1.04009e-15      0.143558        102315        103027        248184   1.90565e-15
    0.0379229       287.694       288.324      0.128366      -1.01243      -7.58132             0      -4.25005      -7.96478             0       22.3031      -0.79635             0       47.9697             0             0      0.196869   1.03852e-15       0.14405        102316        103027        248174   1.90277e-15
    0.0378979       287.693       288.323      0.128404      -1.04468      -7.61037             0      -4.23353      -7.96535             0       22.3026     -0.853913             0       48.1387             0             0      0.196756   1.03695e-15      0.144541        102316        103027        248164   1.89989e-15
    0.0378729       287.692       288.323      0.128443      -1.07693      -7.63942             0      -4.21701      -7.96592             0       22.3022     -0.911476             0       48.3076             0             0      0.196643   1.03539e-15      0.145032        102317        103027        248153   1.89702e-15
    0.0378478        287.69       288.323      0.128481      -1.10917      -7.66846             0      -4.20048      -7.96649             0       22.3017     -0.969039             0       48.4766             0             0       0.19653   1.03382e-15      0.145524        102317        103026        248143   1.89414e-15
    0.0378228       287.689       288.323       0.12852      -1.14142      -7.69751             0      -4.18396      -7.96706             0       22.3012       -1.0266             0       48.6455             0             0      0.196417   1.03225e-15      0.146015        102318        103026        248132   1.89127e-15
    0.0377978       287.688       288.322      0.128558      -1.17367      -7.72656             0      -4.16743      -7.96763             0       22.3008      -1.08417             0       48.8144             0             0      0.196304   1.03068e-15      0.146506        102318        103026        248122   1.88839e-15
    0.0377728       287.687       288.322      0.128597      -1.20591       -7.7556             0      -4.15091       -7.9682             0       22.3003      -1.14173             0       48.9834             0             0      0.196191   1.02911e-15      0.146998        102319        103026        248112   1.88551e-15
    0.0377477       287.686       288.322      0.128635      -1.23816      -7.78465             0      -4.13439      -7.96877             0       22.2998      -1.19929             0       49.1523             0             0      0.196078   1.02754e-15      0.147489        102319        103026        248101   1.88264e-15
    0.0377227       287.684       288.322      0.128674      -1.27041       -7.8137             0      -4.11786      -7.96934             0       22.2993      -1.25685             0       49.3213             0             0      0.195965   1.02597e-15       0.14798        102320        103026        248091   1.87976e-15