#           y             T         TMean   TPrime2Mean           U_x           U_y           U_z       UMean_x       UMean_y       UMean_z UPrime2Mea... UPrime2Mea... UPrime2Mea... UPrime2Mea... UPrime2Mea... UPrime2Mea...            O2           H2O          C3H8             p         pMean   pPrime2Mean           CO2
  1.11022e-19       288.476       288.558     0.0938641       6.85071   3.48449e-17             0       12.5455  -4.64018e-19             0       34.7608   2.76667e-18             0   6.81041e-18             0             0       0.18519   2.61652e-15      0.194827        102602        103132        287273   4.79395e-15
  0.000500501       288.508       288.567     0.0926663       6.66122      0.157085             0       12.5017   -0.00209185             0       34.3419     0.0124725             0     0.0307021             0             0      0.186021   2.60684e-15      0.191211        102602        103132        287281   4.77622e-15
     0.001001       288.541       288.576     0.0914771       6.47139      0.314246             0       12.4577   -0.00418519             0       33.9213     0.0250334             0     0.0614926             0             0      0.186855   2.59712e-15      0.187588        102602        103132        287289   4.75841e-15
    0.0015015       288.661       288.593     0.0945921       6.11024      0.509676             0       12.3631   -0.00702505             0       32.6962     0.0817661             0      0.136419             0             0      0.188553   2.56802e-15      0.180203        102602        103132        287289    4.7051e-15
     0.002002        288.78        288.61     0.0977343       5.74967      0.704734             0       12.2685   -0.00987317             0       31.4699      0.138588             0      0.211544             0             0      0.190248   2.53894e-15      0.172834        102601        103131        287289   4.65181e-15
    0.0025025       288.914        288.62      0.107604       5.53054      0.807083             0       12.1844    -0.0147793             0       29.9763      0.217664             0      0.336138             0             0      0.191059   2.51372e-15      0.169307        102601        103131        287278    4.6056e-15
     0.003003       289.048       288.631      0.117469        5.3122      0.909037             0       12.1004     -0.019692             0       28.4847      0.296632             0      0.461009             0             0      0.191863   2.48858e-15      0.165814        102600        103131        287267   4.55955e-15
    0.0035035       289.122       288.635      0.126578       5.22394       0.94551             0        12.042      -0.02569             0       27.3347      0.357703             0       0.63184             0             0       0.19141   2.47745e-15      0.167785        102599        103131        287290   4.53915e-15
     0.004004       289.197       288.639      0.135642       5.13474      0.982361             0       11.9837    -0.0316815             0       26.1877      0.418625             0      0.802993             0             0      0.190957   2.46634e-15      0.169754        102598        103131        287313    4.5188e-15
    0.0045045       289.232       288.642      0.139005       4.93037       1.06606             0       11.9296    -0.0368621             0        25.419       0.46097             0       1.01412             0             0      0.190556   2.45861e-15      0.171495        102597        103130        287314   4.50464e-15
   0.00500501       289.268       288.645      0.142276       4.72334       1.15135             0       11.8753    -0.0420295             0       24.6531      0.503274             0       1.22561             0             0      0.190164   2.45094e-15      0.173201        102595        103130        287315   4.49057e-15
   0.00550551       289.275       288.652      0.136355       4.25278       1.39461             0       11.8122    -0.0458888             0       24.1737      0.541502             0       1.47406             0             0      0.190546   2.44836e-15      0.171538        102594        103130        287323   4.48585e-15
   0.00600601       289.282       288.659      0.130374       3.78038       1.63933             0       11.7491    -0.0497617             0       23.6972       0.57976             0       1.72298             0             0      0.190933   2.44584e-15      0.169856        102592        103129        287332   4.48123e-15
   0.00650651       289.278       288.669      0.119319       3.15648       2.00477             0       11.6848    -0.0547504             0       23.4606      0.620472             0       2.01105             0             0      0.191677   2.44735e-15      0.166623        102589        103129        287357     4.484e-15
   0.00700701       289.273       288.679      0.108313       2.53322       2.37058             0       11.6207    -0.0597752             0        23.227      0.661143             0       2.29976             0             0      0.192417    2.4489e-15      0.163403        102587        103128        287383   4.48685e-15
   0.00750751       289.261       288.685      0.100729       1.95445       2.76211             0       11.5665     -0.067339             0       23.2041      0.698951             0       2.63289             0             0      0.192961   2.45307e-15      0.161039        102583        103128        287435   4.49447e-15
   0.00800801       289.249       288.691      0.093204        1.3782       3.15342             0       11.5125    -0.0749437             0       23.1828      0.736778             0        2.9668             0             0        0.1935   2.45726e-15      0.158696        102579        103128        287487   4.50215e-15
   0.00850851       289.228       288.692     0.0893313      0.956534       3.53066             0       11.4699    -0.0850651             0       23.2605      0.775792             0       3.34882             0             0      0.193724   2.46338e-15      0.157723        102575        103127        287576   4.51336e-15
   0.00900901       289.207       288.693     0.0854766      0.539337       3.90671             0       11.4275    -0.0952305             0       23.3361      0.814995             0       3.73167             0             0      0.193943   2.46951e-15      0.156769        102570        103127        287666    4.5246e-15
   0.00950951       289.176       288.692     0.0826036      0.365915       4.21764             0       11.3942     -0.107797             0       23.2977      0.864515             0       4.16029             0             0      0.193924   2.47662e-15       0.15685        102564        103126        287797   4.53763e-15
      0.01001       289.145       288.691     0.0797454      0.198147       4.52646             0       11.3611     -0.120404             0       23.2544      0.913996             0       4.58976             0             0      0.193903   2.48372e-15      0.156945        102558        103126        287929   4.55063e-15
    0.0105105       289.109        288.69      0.077615      0.307437       4.73216             0       11.3346     -0.135006             0       22.9689      0.961639             0        5.0613             0             0      0.193726   2.49025e-15      0.157715        102551        103125        288093   4.56261e-15
     0.011011       289.073       288.688     0.0754968      0.421708       4.93569             0       11.3081     -0.149639             0        22.678       1.00863             0       5.53372             0             0      0.193546   2.49676e-15      0.158496        102544        103124        288257   4.57452e-15
    0.0115115       289.028       288.686     0.0739214       0.75743       5.04212             0       11.2849     -0.165624             0       22.1499       1.02685             0       6.04566             0             0      0.193247   2.50158e-15      0.159794        102537        103124        288411   4.58337e-15
     0.012012       288.984       288.684     0.0723544       1.09659       5.14688             0       11.2617     -0.181622             0       21.6167        1.0441             0       6.55835             0             0      0.192948   2.50636e-15      0.161096        102531        103123        288567   4.59211e-15
    0.0125125       288.935       288.681     0.0711279       1.57567       5.18377             0       11.2371     -0.198137             0       20.8742       1.02176             0       7.10154             0             0      0.192613   2.50894e-15      0.162554        102524        103122        288759   4.59685e-15
     0.013013       288.887       288.678     0.0699055        2.0569       5.21944             0       11.2122     -0.214609             0       20.1254      0.999187             0       7.64466             0             0      0.192281   2.51152e-15      0.163997        102517        103122        288950   4.60157e-15
    0.0135135        288.84       288.677     0.0688337       2.61918       5.20907             0       11.1774     -0.229448             0       19.1432      0.967774             0       8.18513             0             0      0.192074   2.51383e-15      0.164896        102511        103121        289114   4.60581e-15
     0.014014       288.793       288.676     0.0677695       3.18248       5.19804             0       11.1419     -0.244147             0       18.1544      0.937198             0       8.72405             0             0      0.191873   2.51614e-15      0.165772        102505        103121        289277   4.61004e-15
    0.0145145       288.759       288.676     0.0669693       3.78129       5.16422             0       11.0852     -0.253968             0       16.9356      0.935676             0       9.20911             0             0      0.191853    2.5184e-15      0.165857        102500        103120        289399   4.61419e-15
     0.015015       288.726       288.676     0.0661783       4.38009       5.13089             0       11.0278     -0.263625             0        15.713      0.934508             0       9.69193             0             0      0.191837   2.52065e-15      0.165925        102495        103119        289521    4.6183e-15
    0.0155155       288.705       288.676     0.0656861       4.97866        5.1136             0       10.9456     -0.267954             0       14.3654      0.944792             0       10.1025             0             0       0.19195   2.52231e-15      0.165433        102490        103119        289676   4.62135e-15
     0.016016       288.684       288.676     0.0651947       5.57708       5.09787             0       10.8628     -0.272242             0       13.0183      0.953385             0       10.5115             0             0      0.192066   2.52399e-15      0.164929        102486        103118        289829   4.62441e-15
    0.0165165       288.662       288.676     0.0647281       6.17082       5.12937             0        10.764     -0.275273             0       11.6874      0.910829             0       10.8742             0             0      0.192275   2.52584e-15      0.164021        102482        103118        289948   4.62781e-15
     0.017017        288.64       288.676     0.0642679        6.7654       5.16237             0        10.665     -0.278377             0       10.3614        0.8653             0       11.2355             0             0      0.192488    2.5277e-15      0.163097        102479        103117        290065   4.63122e-15
    0.0175175       288.617       288.676     0.0639864       7.38353       5.23797             0         10.56     -0.283538             0       9.17427      0.735319             0       11.5552             0             0       0.19281   2.52965e-15      0.161697        102477        103117        290126    4.6348e-15
     0.018018       288.594       288.676     0.0637155       8.00372        5.3142             0       10.4548     -0.288741             0       7.99703      0.602881             0       11.8718             0             0      0.193135   2.53159e-15      0.160283        102474        103116        290185   4.63834e-15
    0.0185185       288.572       288.676     0.0637305       8.67882       5.40727             0       10.3463     -0.295093             0       7.08455      0.404671             0       12.1063             0             0       0.19354   2.53303e-15      0.158519        102473        103116        290157   4.64099e-15
     0.019019       288.551       288.676     0.0637457       9.35645       5.50012             0       10.2379     -0.301438             0       6.18676      0.205033             0       12.3364             0             0      0.193943   2.53444e-15      0.156771        102472        103116        290126   4.64356e-15
    0.0195195       288.539       288.677     0.0637687       10.0979       5.58752             0       10.1284      -0.30759             0       5.66067    -0.0307509             0       12.4542             0             0      0.194251   2.53479e-15      0.155429        102472        103115        289995    4.6442e-15
      0.02002       288.527       288.677      0.063769       10.8409       5.67377             0       10.0191     -0.313745             0        5.1512     -0.267196             0       12.5674             0             0      0.194555    2.5351e-15      0.154108        102472        103115        289862   4.64478e-15
    0.0205205       288.519        288.68      0.063226       11.6192       5.73248             0       9.91307     -0.319979             0       5.04061     -0.519506             0       12.5711             0             0      0.194745   2.53472e-15      0.153282        102474        103115        289688   4.64407e-15
     0.021021       288.511       288.682     0.0626546       12.3961       5.78899             0       9.80724     -0.326197             0       4.94521     -0.771557             0       12.5701             0             0      0.194934   2.53428e-15      0.152462        102476        103115        289513   4.64328e-15
    0.0215215         288.5       288.686     0.0614323       13.1406        5.7953             0       9.70487     -0.332028             0       5.19627      -1.01768             0       12.4634             0             0       0.19509   2.53277e-15      0.151783        102480        103116        289316   4.64051e-15
     0.022022       288.489       288.689     0.0601966       13.8802       5.79886             0       9.60248     -0.337769             0       5.45917      -1.26234             0       12.3516             0             0      0.195242   2.53119e-15       0.15112        102483        103116        289115   4.63762e-15
    0.0225225       288.479       288.693     0.0586658       14.5115       5.74276             0        9.4995     -0.341554             0       5.97958      -1.47516             0       12.1293             0             0      0.195314   2.52817e-15       0.15081        102489        103116        288850   4.63209e-15
     0.023023       288.469       288.698     0.0571446       15.1358       5.68433             0       9.39641     -0.345211             0        6.5083      -1.68559             0       11.9019             0             0       0.19538   2.52514e-15       0.15052        102494        103117        288582   4.62653e-15
    0.0235235       288.465       288.702     0.0558218       15.6129       5.57753             0       9.29098     -0.346206             0       7.20937      -1.84668             0       11.5669             0             0      0.195348   2.52182e-15       0.15066        102500        103117        288254   4.62045e-15
     0.024024        288.46       288.706     0.0545234       16.0834       5.46926             0       9.18557     -0.347079             0       7.91575      -2.00481             0       11.2272             0             0      0.195309   2.51846e-15      0.150831        102506        103118        287927   4.61428e-15
    0.0245245        288.46        288.71      0.053707       16.4242       5.33176             0       9.08047     -0.345523             0       8.72746      -2.10429             0       10.7933             0             0      0.195122   2.51409e-15      0.151642        102513        103118        287599   4.60628e-15
     0.025025       288.461       288.714     0.0528972       16.7603       5.19351             0       8.97569     -0.343851             0       9.54096      -2.20034             0       10.3555             0             0      0.194917   2.50948e-15      0.152533        102519        103119        287269   4.59783e-15
    0.0255255       288.471       288.719     0.0522112       17.0052       5.04087             0        8.8768     -0.339959             0       10.3887      -2.23122             0       9.84539             0             0       0.19436   2.50028e-15      0.154958        102526        103120        286897   4.58097e-15
     0.026026       288.481       288.724      0.051506       17.2469       4.88758             0       8.77853     -0.335952             0       11.2335      -2.25862             0       9.33303             0             0      0.193795   2.49099e-15      0.157415        102533        103120        286523   4.56396e-15
    0.0265265       288.499        288.73     0.0504496       17.4283       4.72258             0       8.69145     -0.329829             0       12.0255      -2.22245             0       8.77942             0             0      0.193089   2.48016e-15      0.160483        102539        103121        286126   4.54412e-15
     0.027027       288.517       288.736     0.0493599       17.6071         4.556             0        8.6051      -0.32361             0       12.8094      -2.18335             0       8.22536             0             0      0.192385   2.46933e-15      0.163546        102546        103122        285728   4.52427e-15
    0.0275275       288.542       288.744     0.0476868       17.7396       4.36201             0       8.53148     -0.315702             0       13.4522      -2.09287             0       7.66347             0             0      0.191697    2.4583e-15      0.166534        102552        103123        285309   4.50407e-15
     0.028028       288.567       288.752     0.0460372       17.8665       4.16518             0       8.45857     -0.307715             0       14.0814      -2.00067             0       7.10285             0             0      0.191011   2.44719e-15      0.169518        102558        103123        284890   4.48371e-15
    0.0285285       288.592       288.761     0.0447844       17.8969       3.92043             0       8.39781     -0.298394             0       14.4814      -1.87945             0       6.56344             0             0      0.190343    2.4345e-15      0.172421        102564        103124        284479   4.46047e-15
     0.029029       288.616        288.77     0.0436145       17.9159       3.67274             0       8.33783      -0.28898             0       14.8639      -1.75832             0       6.02674             0             0      0.189691   2.42175e-15      0.175255        102570        103124        284073    4.4371e-15
    0.0295295       288.624       288.777     0.0437897       17.7484       3.37719             0       8.29042     -0.278077             0       14.9636      -1.63888             0       5.53392             0             0      0.189296    2.4079e-15      0.176973        102575        103125        283760   4.41173e-15
      0.03003       288.632       288.783     0.0439988       17.5697       3.08065             0       8.24386     -0.267093             0       15.0477      -1.52087             0        5.0448             0             0      0.188916   2.39394e-15      0.178624        102580        103125        283454   4.38615e-15
    0.0305305       288.633       288.786     0.0447376        17.215       2.76857             0       8.21062     -0.254848             0       14.8864      -1.42535             0       4.61372             0             0      0.188777   2.37825e-15       0.17923        102585        103126        283266   4.35741e-15
     0.031031       288.634       288.788     0.0454534       16.8587       2.45805             0       8.17814     -0.242582             0       14.7162      -1.33125             0        4.1868             0             0       0.18865   2.36253e-15      0.179782        102589        103127        283082   4.32859e-15
    0.0315315       288.637       288.788     0.0458218       16.4777       2.17137             0       8.15726     -0.230007             0       14.4114      -1.25862             0       3.82279             0             0      0.188707   2.34624e-15      0.179536        102592        103127        282949   4.29875e-15
     0.032032       288.642       288.787     0.0461573        16.106       1.88727             0        8.1368     -0.217468             0       14.1055      -1.18672             0       3.46285             0             0      0.188788   2.32913e-15      0.179183        102595        103128        282822    4.2674e-15
    0.0325325       288.654       288.785     0.0460101       15.8712         1.641             0       8.12257     -0.205455             0        13.783      -1.12537             0       3.16241             0             0      0.189227   2.29996e-15      0.177272        102597        103128        282791   4.21396e-15
     0.033033       288.667       288.782     0.0458359       15.6481       1.39665             0       8.10834     -0.193497             0       13.4641      -1.06434             0       2.86552             0             0      0.189688   2.26952e-15       0.17527        102599        103128        282766   4.15818e-15
    0.0335335       288.693       288.778     0.0452784       15.5919       1.17947             0       8.09415     -0.182307             0       13.1971      -1.00782             0       2.61906             0             0      0.190447   2.22104e-15      0.171971        102601        103129        282823   4.06935e-15
     0.034034        288.72       288.774      0.044689       15.5378      0.964206             0       8.07976     -0.171169             0       12.9343     -0.951609             0       2.37545             0             0       0.19119   2.17411e-15      0.168739        102603        103129        282883   3.98338e-15
    0.0345345       288.751       288.768     0.0436622       15.5129      0.775088             0       8.06274      -0.16072             0       12.7306     -0.899593             0       2.17075             0             0      0.191722   2.14854e-15      0.166425        102605        103129        282981   3.93652e-15
     0.035035       288.781       288.762     0.0426142       15.4792      0.589275             0       8.04565     -0.150337             0         12.53     -0.847959             0       1.96824             0             0      0.192223   2.12485e-15      0.164246        102607        103130        283085   3.89312e-15
    0.0355355         288.8       288.754     0.0412841       15.3292       0.44738             0       8.02781      -0.14082             0       12.3695     -0.801391             0       1.79459             0             0      0.192316    2.1262e-15      0.163842        102608        103130        283263    3.8956e-15
     0.036036       288.819       288.747     0.0399687       15.1738      0.307943             0       8.01014     -0.131383             0       12.2107     -0.755223             0       1.62267             0             0       0.19239   2.12729e-15       0.16352        102610        103130        283442    3.8976e-15
    0.0365365        288.83       288.738     0.0388426       14.9488      0.200185             0       7.99482     -0.122977             0       12.0748     -0.714204             0       1.47311             0             0       0.19222   2.12495e-15      0.164258        102611        103130        283634    3.8933e-15
     0.037037        288.84        288.73     0.0377657       14.7326     0.0900451             0       7.97973     -0.114634             0       11.9392     -0.673397             0       1.32506             0             0      0.192015   2.12267e-15      0.165149        102612        103131        283827   3.88912e-15
    0.0375375       288.854       288.722     0.0373056       14.6278    -0.0498875             0       7.96756     -0.107079             0       11.8077     -0.635255             0       1.19581             0             0      0.191371   2.12115e-15      0.167952        102613        103131        284023   3.88633e-15
     0.038038       288.867       288.715     0.0368889       14.5385     -0.195216             0       7.95546    -0.0995473             0       11.6745     -0.596945             0       1.06796             0             0      0.190714   2.11931e-15      0.170809        102614        103131        284222   3.88297e-15
    0.0385385       288.874       288.709     0.0370022       14.6379     -0.406148             0        7.9441    -0.0922914             0       11.5215      -0.55659             0      0.957152             0             0      0.189905   2.11367e-15      0.174325        102614        103131        284443   3.87263e-15
     0.039039       288.878       288.703     0.0371338       14.7419     -0.618394             0       7.93257    -0.0850186             0       11.3653     -0.515719             0      0.847611             0             0      0.189133   2.10934e-15      0.177681        102615        103131        284665    3.8647e-15
    0.0395395       288.851       288.699     0.0374807       14.8993     -0.846181             0        7.9191    -0.0775472             0       11.1722     -0.468754             0      0.753016             0             0      0.188798   2.12061e-15      0.179138        102616        103131        284903   3.88536e-15
      0.04004       288.823       288.694     0.0378386       15.0406      -1.06592             0       7.90542     -0.070077             0       10.9771      -0.42152             0      0.659599             0             0      0.188487   2.13474e-15       0.18049        102617        103131        285144   3.91124e-15
    0.0405405       288.775       288.692     0.0383218        14.996      -1.19307             0       7.88936    -0.0626202             0       10.7587      -0.37118             0      0.579722             0             0      0.188453   2.18162e-15      0.180638        102617        103131        285417   3.99714e-15
     0.041041       288.729       288.689     0.0388038       14.9287      -1.30811             0       7.87328    -0.0552428             0        10.542     -0.321464             0      0.501049             0             0      0.188422   2.22826e-15      0.180775        102618        103131        285691   4.08259e-15
    0.0415415       288.697       288.687     0.0392717       14.6076      -1.28755             0       7.85705    -0.0487543             0       10.3439     -0.278736             0      0.435844             0             0      0.188419   2.27214e-15      0.180785        102619        103131        285965   4.16298e-15
     0.042042       288.668       288.686      0.039732       14.2845      -1.26286             0       7.84093    -0.0423935             0       10.1494     -0.237098             0      0.371787             0             0      0.188425   2.31408e-15      0.180762        102619        103131        286235   4.23983e-15
    0.0425425       288.681       288.685     0.0401089       13.9385      -1.19306             0       7.82596    -0.0374261             0       9.99514     -0.207342             0      0.320256             0             0      0.188516   2.33494e-15      0.180366        102620        103132        286474   4.27805e-15
     0.043043       288.698       288.684     0.0404873       13.6078      -1.12534             0       7.81084    -0.0325389             0       9.84203      -0.17811             0      0.269616             0             0      0.188624   2.35298e-15      0.179896        102621        103132        286714    4.3111e-15
    0.0435435       288.753       288.683     0.0408814       13.4397      -1.07976             0       7.79421    -0.0285033             0       9.70132      -0.15445             0      0.228458             0             0      0.188916   2.34103e-15      0.178627        102621        103132        286964    4.2892e-15
     0.044044       288.813       288.683     0.0412418       13.2793      -1.03423             0       7.77689    -0.0244986             0       9.55854     -0.130663             0      0.187983             0             0      0.189309   2.32239e-15      0.176916        102622        103132        287211   4.25505e-15
    0.0445445       288.919       288.681     0.0412521       13.1982     -0.989364             0       7.75239    -0.0208154             0       9.39434     -0.105567             0      0.154597             0             0      0.190755   2.23453e-15      0.170629        102623        103132        287439   4.09408e-15
     0.045045       289.021        288.68      0.041197       13.0933     -0.942639             0       7.72618    -0.0171518             0       9.22432    -0.0802165             0      0.121827             0             0      0.192348   2.14029e-15      0.163706        102623        103132        287661   3.92141e-15
    0.0455455       289.086       288.677     0.0404799       12.7482     -0.877148             0       7.68255    -0.0136871             0       8.99554    -0.0522908             0     0.0952845             0             0      0.195419   1.98153e-15      0.150351        102624        103132        287833   3.63053e-15