#           y             T         TMean   TPrime2Mean           U_x           U_y           U_z       UMean_x       UMean_y       UMean_z UPrime2Mea... UPrime2Mea... UPrime2Mea... UPrime2Mea... UPrime2Mea... UPrime2Mea...            O2           H2O          C3H8             p         pMean   pPrime2Mean           CO2
  1.11022e-19       288.179       288.088      0.115728          21.4  -1.04439e-15             0       19.9439  -2.18801e-16             0       22.1368   -1.0407e-16             0   4.46967e-16             0             0      0.229939   6.45266e-11   0.000264304        102610        103128        242933   1.18225e-10
  0.000500501       288.187       288.093      0.118385       21.3972      0.118986             0       19.9461     0.0555998             0       22.1829    -0.0533605             0      0.053247             0             0       0.22987   1.83299e-10   0.000565601        102610        103128        242885   3.35837e-10
     0.001001       288.196       288.099      0.121173       21.3944      0.237976             0       19.9484        0.1112             0       22.2291     -0.106709             0      0.106652             0             0        0.2298   3.04125e-10   0.000869993        102610        103128        242837   5.57214e-10
    0.0015015       288.283       288.131      0.189182       21.3639       0.35913             0       19.9555      0.166744             0        22.362     -0.153875             0      0.238973             0             0      0.229375   1.45016e-09    0.00271862        102611        103127        242655   2.65697e-09
     0.002002       288.372       288.163      0.259921       21.3334      0.480393             0       19.9627      0.222288             0       22.4956      -0.20104             0      0.371717             0             0      0.228946   2.61281e-09    0.00458245        102611        103127        242473   4.78715e-09
    0.0025025       288.901       288.263       1.01015       21.2944      0.628658             0       19.9773      0.277843             0       22.8165     -0.247945             0      0.609931             0             0      0.227648   7.91019e-09     0.0102285        102612        103127        242186    1.4493e-08
     0.003003       289.438       288.364       1.77768       21.2558       0.77684             0        19.992      0.333402             0       23.1387     -0.294742             0      0.848874             0             0      0.226342   1.32773e-08     0.0159064        102612        103126        241900   2.43265e-08
    0.0035035       291.255       288.568       5.40989       21.2837      0.911266             0       20.0258      0.389463             0       23.6657       -0.3236             0        1.2087             0             0      0.223824   3.01939e-08     0.0268523        102612        103126        241605   5.53209e-08
     0.004004        293.09       288.773       9.08526       21.3111       1.04637             0       20.0595      0.445548             0        24.192     -0.352113             0       1.56957             0             0        0.2213   4.72814e-08     0.0378231        102613        103126        241309   8.66283e-08
    0.0045045       297.194       289.049       18.1143       21.2854       1.26606             0       20.0891      0.504565             0       24.6434     -0.337807             0        2.0606             0             0      0.218066   8.55547e-08     0.0518851        102612        103125        240971   1.56752e-07
   0.00500501        301.32       289.325       27.1787       21.2583       1.48654             0       20.1182      0.563614             0       25.0901     -0.322419             0       2.55262             0             0      0.214838   1.24015e-07     0.0659177        102612        103124        240632   2.27218e-07
   0.00550551       307.577       289.575       39.7359       21.0937       1.78664             0       20.0926      0.625805             0       25.0693     -0.199977             0       3.14261             0             0       0.21228   1.80975e-07      0.077041        102611        103124        240266   3.31581e-07
   0.00600601       313.846       289.824       52.3012       20.9305       2.08649             0       20.0656      0.688064             0       25.0417    -0.0753621             0       3.73267             0             0      0.209735   2.38149e-07     0.0881057        102611        103123        239900   4.36333e-07
   0.00650651       321.153       289.998       65.5377       20.8752       2.36589             0        19.921      0.755946             0       24.4432      0.228112             0        4.3283             0             0      0.208299   3.12856e-07     0.0943432        102611        103122        239612   5.73211e-07
   0.00700701       328.445        290.17       78.7054       20.8225        2.6464             0       19.7743      0.823895             0       23.8411      0.535071             0       4.92322             0             0       0.20687   3.87788e-07      0.100551        102611        103121        239324     7.105e-07
   0.00750751       334.678       290.245       87.0318       20.9539        3.0054             0        19.475      0.896553             0       22.9943       1.08743             0       5.46922             0             0      0.205921   4.78529e-07      0.104676        102613        103121        238979   8.76755e-07
   0.00800801       340.882       290.319       95.2048       21.0835       3.36555             0       19.1736      0.969137             0        22.149        1.6408             0        6.0149             0             0      0.204969   5.69626e-07      0.108815        102614        103120        238632   1.04366e-06
   0.00850851       345.313       290.287       93.9346       21.1024       3.79658             0        18.743       1.03716             0       21.3978       2.25615             0       6.54146             0             0      0.203835   6.82556e-07      0.113745        102617        103119        238143   1.25057e-06
   0.00900901       349.734       290.253       92.5583       21.1171       4.22687             0        18.311       1.10469             0       20.6533       2.86408             0       7.07003             0             0      0.202688    7.9602e-07      0.118734        102621        103119        237655   1.45846e-06
   0.00950951       353.585       290.156       85.3886       20.8975       4.61718             0       17.8048       1.14598             0       20.2771       3.06784             0       7.70825             0             0       0.20081   9.38611e-07      0.126897        102623        103118        237155   1.71971e-06
      0.01001       357.404       290.059       78.1968       20.6715       5.00686             0       17.2988       1.18673             0       19.9237       3.26235             0       8.35047             0             0      0.198941   1.07961e-06      0.135021        102625        103117        236654   1.97804e-06
    0.0105105       359.677       289.935       69.9176       20.1334       5.36522             0       16.8073       1.20145             0       20.6843       3.00344             0       9.18887             0             0      0.197505   1.14252e-06      0.141266        102626        103116        236131   2.09331e-06
     0.011011       361.913        289.81       61.6616       19.5887       5.71959             0       16.3165       1.21597             0       21.4839       2.74219             0       10.0296             0             0      0.196088   1.20249e-06       0.14743        102627        103115        235611   2.20319e-06
    0.0115115       362.507       289.678       54.4387       18.7538       5.89679             0       15.8571       1.22132             0       24.0191       2.37708             0       10.9734             0             0      0.195494   1.13154e-06      0.150015        102627        103113        235223   2.07319e-06
     0.012012        363.08       289.547       47.2369       17.9156       6.07057             0       15.3977        1.2267             0       26.5872       2.01266             0        11.918             0             0      0.194893   1.05971e-06      0.152636        102628        103112        234842   1.94158e-06
    0.0125125       362.788       289.419       40.8947       16.9429       6.10562             0       14.9376       1.23303             0       30.4918       1.67635             0       12.8936             0             0      0.193959   9.52252e-07      0.156698        102630        103111        234764    1.7447e-06
     0.013013       362.428       289.293       34.5885       15.9658       6.14313             0       14.4791       1.23885             0       34.4003       1.33509             0       13.8739             0             0      0.192995   8.44846e-07      0.160886        102632        103109        234694   1.54791e-06
    0.0135135        359.52       289.201       29.6343       14.8268       6.27302             0       14.0839       1.22582             0       38.4532      0.808597             0       15.0273             0             0      0.190941   7.39329e-07      0.169814        102635        103107        234906   1.35459e-06
     0.014014       356.504       289.111       24.7117       13.6876       6.40422             0       13.6915        1.2122             0       42.4824      0.276134             0       16.1878             0             0      0.188859   6.33358e-07      0.178865        102638        103106        235125   1.16043e-06
    0.0145145       349.729       289.051       20.8883       12.5446       6.58124             0       13.3945       1.17796             0       45.6873     -0.463503             0       17.5962             0             0      0.185798   5.11627e-07      0.192175        102641        103103        235544   9.37396e-07
     0.015015       342.872       288.992       17.0785       11.4095       6.75148             0       13.0987       1.14375             0       48.8601       -1.2016             0       19.0059             0             0      0.182763   3.90285e-07      0.205377        102643        103101        235971   7.15076e-07
    0.0155155       333.334       288.927       13.7107       10.5275        6.7026             0       12.8387       1.11071             0       50.9992      -1.88982             0       20.4562             0             0      0.180535   2.81537e-07      0.215064        102644        103099        236638   5.15829e-07
     0.016016       323.841       288.862        10.381       9.65776        6.6446             0       12.5792       1.07828             0       53.1077      -2.57204             0       21.9047             0             0      0.178332   1.74457e-07      0.224642        102645        103097        237314   3.19638e-07
    0.0165165       315.709       288.793       8.20517       9.15941       6.31106             0       12.3335       1.06436             0       54.2912      -3.07248             0       23.2956             0             0      0.176892   1.17816e-07      0.230905        102645        103095        238234   2.15861e-07
     0.017017       307.725       288.726       6.06183       8.67648       5.97154             0       12.0884       1.05119             0       55.4487      -3.56972             0       24.6864             0             0      0.175387   6.24609e-08      0.237453        102646        103093        239159    1.1444e-07
    0.0175175       303.924        288.67       4.84071       8.63158        5.4622             0       11.8579       1.05951             0       55.8688       -3.9759             0       26.0737             0             0      0.172016   4.36487e-08       0.25211        102647        103091        240228   7.99726e-08
     0.018018        300.24       288.615        3.6349       8.60234       4.94832             0       11.6272       1.06869             0         56.26       -4.3821             0       27.4626             0             0      0.168627   2.53535e-08      0.266844        102648        103090        241299   4.64523e-08
    0.0185185       299.696       288.572        2.8388       8.99219        4.3131             0       11.3919       1.10119             0       55.8763      -4.78868             0       28.8939             0             0      0.164758   2.09008e-08      0.283664        102650        103088        242452   3.82941e-08
     0.019019       299.187       288.529       2.05492       9.39211       3.67565             0       11.1558        1.1346             0        55.456      -5.19368             0       30.3254             0             0      0.160976   1.66253e-08      0.300103        102651        103086        243603   3.04606e-08
    0.0195195       299.578        288.49       1.58019       10.0472       2.98191             0       10.8991        1.1911             0       54.1072      -5.55847             0       31.7629             0             0      0.159409   1.68345e-08      0.306919        102653        103085        244710   3.08439e-08
      0.02002       299.939       288.451       1.11547       10.7017       2.29363             0        10.642       1.24871             0       52.7298      -5.91809             0       33.1983             0             0      0.157938   1.70731e-08      0.313316        102655        103083        245815   3.12811e-08
    0.0205205       299.568       288.426      0.890798       11.3437        1.7362             0        10.373       1.33311             0       50.6624       -6.1536             0       34.5846             0             0      0.158776   1.80162e-08      0.309668        102657        103081        246844   3.30091e-08
     0.021021       299.165       288.401      0.671463       11.9786       1.18999             0       10.1047        1.4187             0       48.5912      -6.37994             0       35.9687             0             0      0.159694   1.89257e-08      0.305676        102660        103080        247867   3.46754e-08
    0.0215215       298.011       288.393      0.573893       12.4524      0.899788             0       9.85136       1.53139             0       46.4329      -6.39687             0       37.3043             0             0      0.162423    1.9067e-08      0.293811        102663        103079        248764   3.49343e-08
     0.022022       296.849       288.385      0.478787       12.9216      0.618081             0       9.59988       1.64529             0       44.2847      -6.40351             0       38.6382             0             0       0.16515   1.91635e-08      0.281953        102666        103078        249655   3.51112e-08
    0.0225225       295.507       288.384       0.43725       13.2938      0.520896             0       9.38865       1.78537             0       42.3554      -6.18655             0       39.9357             0             0      0.167847   1.82867e-08      0.270225        102668        103077        250402   3.35047e-08
     0.023023       294.183       288.384      0.397089       13.6676      0.426571             0       9.17954       1.92646             0       40.4277      -5.96022             0       41.2334             0             0      0.170477   1.73985e-08      0.258791        102670        103076        251139   3.18773e-08
    0.0235235       293.239       288.384      0.385468        14.074      0.391547             0       9.01438        2.0887             0       38.5336       -5.5395             0       42.5383             0             0      0.171704   1.62748e-08       0.25346        102670        103075        251706   2.98185e-08
     0.024024       292.329       288.384      0.374362       14.4831      0.356071             0       8.85064       2.25199             0       36.6333      -5.10631             0       43.8441             0             0      0.172877   1.51907e-08      0.248362        102671        103075        252265   2.78322e-08
    0.0245245       292.087       288.383      0.373472       14.9466      0.311619             0       8.71523       2.43609             0       34.6103      -4.42587             0       45.1691             0             0      0.172982   1.48914e-08       0.24791        102668        103074        252654   2.72837e-08
     0.025025       291.867       288.382      0.372652       15.4124      0.271528             0       8.58067       2.62134             0       32.5916      -3.72752             0       46.4952             0             0      0.173093   1.46326e-08      0.247426        102665        103074        253029   2.68097e-08
    0.0255255       292.089       288.378      0.373178       15.9221      0.314319             0        8.4622       2.82819             0        30.651      -2.68901             0       47.8441             0             0      0.173342   1.51459e-08      0.246341        102660        103073        253123   2.77501e-08
     0.026026       292.312       288.375      0.373669       16.4352      0.367159             0       8.34448       3.03615             0       28.7382      -1.62983             0       49.1961             0             0      0.173651   1.56587e-08      0.244998        102655        103073        253199   2.86897e-08
    0.0265265       292.541       288.367      0.373546       17.0117      0.603227             0       8.24055       3.26423             0       27.3321     -0.193609             0       50.6053             0             0      0.175043   1.61642e-08      0.238943        102649        103073        252948   2.96158e-08
     0.027027       292.758        288.36      0.373279       17.5866      0.850951             0       8.13681       3.49311             0       25.9714       1.26264             0       52.0165             0             0      0.176496   1.66442e-08       0.23262        102643        103073        252680   3.04952e-08
    0.0275275       292.775        288.35      0.370482       18.1338       1.30287             0       8.03645       3.73599             0       25.4055       3.06981             0       53.4635             0             0      0.179028   1.66778e-08      0.221608        102636        103073        252120   3.05569e-08
     0.028028       292.767       288.341        0.3674       18.6668         1.768             0       7.93543       3.97921             0       24.8841        4.8901             0       54.9035             0             0      0.181655   1.66469e-08      0.210182        102630        103074        251541   3.05003e-08
    0.0285285       292.349       288.331      0.359493       18.9603       2.45591             0       7.82321       4.22823             0       25.1114       6.93177             0       56.2252             0             0      0.185881   1.55277e-08      0.191806        102625        103074        250654   2.84496e-08
     0.029029       291.908       288.321      0.351455         19.23       3.15462             0       7.70998       4.47726             0       25.3712       8.97353             0       57.5302             0             0      0.190179   1.43348e-08      0.173117        102620        103074        249758    2.6264e-08
    0.0295295       291.115       288.314      0.341287       19.1111       4.02861             0       7.58052       4.72623             0       26.1578       11.0169             0       58.5646             0             0      0.195648   1.19466e-08      0.149338        102617        103075        248719   2.18884e-08
      0.03003       290.329       288.306      0.331269       18.9714       4.90753             0       7.45044       4.97506             0       26.9664       13.0476             0       59.5801             0             0      0.201032   9.56566e-09       0.12593        102613        103076        247674   1.75261e-08
    0.0305305       289.659       288.301      0.323592       18.5054       5.86381             0       7.31079       5.22156             0       28.1206       14.8805             0       60.3017             0             0      0.205077   7.29842e-09      0.108348        102612        103077        246532   1.33721e-08
     0.031031       289.009       288.296      0.316034       18.0309       6.81622             0       7.17097        5.4677             0       29.2925       16.6932             0       61.0079             0             0       0.20899   5.08994e-09      0.091341        102611        103078        245390   9.32573e-09
    0.0315315       288.657       288.292      0.310275       17.4277        7.7101             0       7.02855       5.70838             0       30.7326          18.2             0        61.482             0             0        0.2109   3.77053e-09     0.0830366        102612        103079        244250   6.90832e-09
     0.032032       288.318       288.288      0.304601       16.8286       8.59439             0       6.88598       5.94824             0       32.1893       19.6832             0       61.9434             0             0      0.212739   2.49338e-09     0.0750439        102613        103080        243119   4.56834e-09
    0.0325325       288.155       288.284      0.300163       16.2899       9.33853             0       6.74115       6.17599             0       33.8889       20.8194             0       62.2184             0             0       0.21353   1.83434e-09     0.0716106        102618        103082        242128   3.36085e-09
     0.033033           288       288.279      0.295897       15.7599       10.0714             0       6.59588       6.40219             0       35.5999       21.9279             0       62.4785             0             0      0.214282   1.20052e-09     0.0683411        102622        103083        241146   2.19958e-09
    0.0335335        287.94       288.274      0.294057       15.3537       10.6457             0       6.44435       6.60628             0       37.4733       22.6437             0       62.5272             0             0      0.214501   9.23688e-10     0.0673898        102631        103085        240300   1.69237e-09
     0.034034       287.884       288.268      0.292416        14.953       11.2088             0       6.29194       6.80794             0       39.3478       23.3256             0       62.5542             0             0      0.214698   6.58365e-10     0.0665355        102639        103087        239468   1.20625e-09
    0.0345345        287.87       288.263      0.293494       14.6288       11.6188             0       6.12737       6.97623             0       41.2369       23.5431             0       62.2825             0             0      0.214589   5.50822e-10     0.0670097        102650        103089        238818   1.00921e-09
     0.035035       287.858       288.257      0.294672       14.3019       12.0189             0       5.96124       7.14115             0       43.1177        23.722             0       61.9816             0             0       0.21446   4.45378e-10     0.0675693        102661        103091        238184   8.16015e-10
    0.0355355        287.86       288.253      0.297189       13.9393       12.2866             0       5.77437       7.26113             0       44.8882       23.3881             0       61.2933             0             0       0.21407   3.67826e-10     0.0692626        102673        103093        237780   6.73927e-10
     0.036036       287.864       288.249      0.299621       13.5655       12.5449             0       5.58513       7.37692             0       46.6471        23.015             0       60.5703             0             0      0.213667   2.90818e-10     0.0710139        102684        103096        237390   5.32833e-10
    0.0365365       287.874       288.247      0.300962       13.0486       12.6818             0       5.36525       7.43865             0       48.2567       22.1354             0       59.4002             0             0      0.213092   2.20813e-10     0.0735134        102695        103099        237180    4.0457e-10
     0.037037       287.885       288.245      0.302153       12.5149       12.8092             0       5.14237        7.4957             0       49.8556       21.2199             0       58.1922             0             0      0.212524   1.53011e-10     0.0759807        102706        103102        236980   2.80345e-10
    0.0375375       287.899       288.245      0.301455       11.7722       12.8186             0       4.88203       7.49409             0       51.3206       19.8564             0       56.5106             0             0      0.212049   1.12788e-10     0.0780453        102714        103105        236909   2.06649e-10
     0.038038       287.914       288.245      0.300668       11.0113       12.8203             0       4.61823       7.48772             0       52.7806        18.467             0       54.7916             0             0      0.211587   7.42479e-11      0.080052        102722        103109        236850   1.36036e-10
    0.0385385       287.934       288.245      0.298805       10.0303        12.729             0       4.31233        7.4234             0       54.1799       16.7635             0       52.6178             0             0      0.211287   5.61703e-11     0.0813547        102725        103113        236934   1.02914e-10
     0.039039       287.955       288.245      0.296764       9.03581       12.6296             0       4.00289       7.35437             0       55.5792       15.0475             0       50.4125             0             0      0.210965   3.86521e-11     0.0827543        102729        103116        237030   7.08178e-11
    0.0395395       287.993       288.245      0.292632       7.88194       12.4336             0       3.65161       7.22978             0       56.9794       13.1835             0       47.8349             0             0      0.210381   2.77465e-11     0.0852986        102729        103121        237260   5.08368e-11
      0.04004        288.03       288.246      0.288204       6.71633       12.2322             0       3.29798       7.10037             0       58.3649       11.3136             0       45.2373             0             0      0.209783    1.7241e-11     0.0879002        102729        103125        237500   3.15888e-11
    0.0405405       288.061       288.248      0.280367       5.41583       11.9689             0       2.91725       6.91549             0       59.5806       9.37562             0        42.411             0             0      0.209033   1.13359e-11     0.0911599        102728        103130        237844   2.07695e-11
     0.041041       288.087        288.25      0.272361        4.1136       11.7036             0       2.53646       6.72574             0       60.7457       7.43341             0       39.5724             0             0      0.208305   5.74941e-12     0.0943253        102728        103134        238190    1.0534e-11
    0.0415415       288.064       288.254      0.262474        2.7921       11.4172             0       2.15501       6.48147             0       61.3441       5.44393             0       36.5958             0             0       0.20782   3.72982e-12     0.0964351        102728        103139        238548   6.83372e-12
     0.042042       288.035       288.258      0.252553        1.4921       11.1151             0       1.77511        6.2327             0       61.8786       3.45881             0       33.6116             0             0      0.207298   1.82885e-12     0.0987021        102729        103144        238906   3.35079e-12
    0.0425425        287.94       288.264      0.242269      0.426599       10.6426             0       1.41216       5.93484             0       61.7172       1.52133             0       30.5449             0             0      0.206383    1.2214e-12      0.102683        102733        103149        239257   2.23784e-12
     0.043043       287.848       288.271      0.231911     -0.623161       10.1548             0       1.05047       5.63357             0       61.5298     -0.398475             0       27.4809             0             0      0.205232   6.45506e-13      0.107686        102736        103154        239614   1.18269e-12
    0.0435435       287.779       288.282      0.220762      -1.50562       9.50332             0      0.702099       5.29617             0        61.067      -2.13055             0        24.446             0             0      0.201582   4.04881e-13      0.123557        102743        103158        240038   7.41817e-13
     0.044044        287.72       288.294      0.209643      -2.41288       8.85988             0      0.356247       4.95577             0       60.5788      -3.82065             0       21.4263             0             0      0.197777   1.79303e-13      0.140102        102750        103163        240469   3.28517e-13
    0.0445445       287.764        288.31      0.198835      -3.57709       8.29933             0     0.0365341        4.5843             0       59.8279      -5.07558             0       18.5642             0             0      0.192364   1.09673e-13      0.163634        102760        103168        240967   2.00941e-13
     0.045045       287.814       288.325      0.188443      -4.75428       7.74555             0     -0.277548       4.20923             0       59.0045      -6.26049             0       15.7255             0             0        0.1871   4.49446e-14      0.186522        102769        103172        241474   8.23468e-14
    0.0455455       287.923       288.337      0.182265      -6.06264       7.26012             0     -0.534691       3.79772             0       57.4467      -6.73729             0       13.1232             0             0      0.183331   2.97891e-14      0.202909        102779        103176        242061   5.45791e-14