#           y             T         TMean   TPrime2Mean           U_x           U_y           U_z       UMean_x       UMean_y       UMean_z UPrime2Mea... UPrime2Mea... UPrime2Mea... UPrime2Mea... UPrime2Mea... UPrime2Mea...            O2           H2O          C3H8             p         pMean   pPrime2Mean           CO2
  1.11022e-19        287.58       288.164      0.191577       17.9267  -4.69269e-17             0       16.8886    5.9311e-18             0       41.1077  -2.75859e-17             0   2.54901e-17             0             0      0.228729   1.01088e-15    0.00552726        102753        103159        273325   1.85212e-15
  0.000500501       287.447       288.165      0.195438       17.9198     -0.211551             0       16.8939     0.0267381             0       41.0365      -0.12436             0      0.114912             0             0      0.227123   1.71432e-15     0.0125104        102753        103159        273314   3.14095e-15
     0.001001       287.314       288.167      0.199311       17.9128     -0.423089             0       16.8991      0.053478             0       40.9651     -0.248667             0      0.230098             0             0      0.225508   2.42041e-15     0.0195312        102753        103159        273302   4.43464e-15
    0.0015015       287.166       288.175      0.208784       17.8778     -0.627919             0        16.903     0.0811534             0       40.7097       -0.3461             0       0.48218             0             0      0.219569   4.44726e-15      0.045352        102754        103158        273273    8.1482e-15
     0.002002       287.018       288.182      0.218263       17.8423     -0.832481             0       16.9068      0.108835             0        40.453     -0.443267             0       0.73476             0             0      0.213608   6.47843e-15     0.0712724        102754        103158        273243   1.18697e-14
    0.0025025       287.146       288.196      0.229097       17.6863      -0.97056             0       16.8776      0.138107             0       39.8429     -0.474505             0       1.11131             0             0      0.201946   9.58587e-15      0.121978        102754        103158        273256   1.75631e-14
     0.003003       287.274        288.21      0.239915       17.5293      -1.10793             0       16.8482      0.167383             0       39.2302     -0.505324             0       1.48843             0             0      0.190278   1.26965e-14       0.17271        102755        103157        273268   2.32623e-14
    0.0035035       287.524       288.229      0.247966       17.2257      -1.12752             0        16.774       0.19741             0       38.1752     -0.466658             0       1.96111             0             0       0.17761    1.6332e-14       0.22779        102755        103157        273299   2.99233e-14
     0.004004       287.772       288.247      0.255993        16.923      -1.14716             0       16.6996      0.227432             0       37.1191      -0.42783             0       2.43446             0             0      0.164995    2.0004e-14      0.282636        102756        103156        273329   3.66511e-14
    0.0045045       287.879       288.266      0.260971       16.7374      -1.17406             0       16.6004      0.256873             0       35.9397     -0.368972             0       2.99074             0             0      0.159048   2.82064e-14      0.308488        102756        103155        273360   5.16794e-14
   0.00500501       287.985       288.286      0.265935       16.5549      -1.20246             0       16.5011      0.286301             0       34.7631      -0.31026             0       3.54772             0             0      0.153148   3.64664e-14      0.334131        102757        103154        273392   6.68133e-14
   0.00550551       288.007       288.301      0.269458        16.682      -1.37952             0       16.3944      0.314406             0       33.8737     -0.266019             0       4.17499             0             0      0.151993   5.04358e-14      0.339157        102757        103154        273479   9.24077e-14
   0.00600601        288.03       288.316      0.272966       16.8105      -1.55742             0       16.2878       0.34247             0       32.9887     -0.222946             0       4.80334             0             0      0.150836   6.43544e-14      0.344188        102757        103153        273567   1.17909e-13
   0.00650651       288.104       288.328      0.275318       17.0485      -1.80411             0       16.1884       0.36718             0       32.4621     -0.276008             0        5.5211             0             0       0.14958    7.4096e-14      0.349653        102757        103152        273668   1.35758e-13
   0.00700701       288.177        288.34      0.277651        17.284       -2.0496             0       16.0895      0.391785             0       31.9412      -0.33219             0       6.24113             0             0      0.148325   8.36461e-14      0.355113        102758        103151        273769   1.53255e-13
   0.00750751       288.278       288.346      0.278696       17.3439      -2.20968             0       16.0195      0.409016             0       31.8201     -0.608138             0          7.12             0             0      0.147139   7.97044e-14      0.360271        102758        103150        273898   1.46033e-13
   0.00800801       288.379       288.353      0.279693       17.3981      -2.36609             0       15.9501      0.426229             0       31.7061     -0.885676             0       8.00189             0             0      0.145968   7.56243e-14       0.36536        102759        103149        274028   1.38558e-13
   0.00850851       288.454       288.352      0.277787        17.102      -2.29665             0       15.9132      0.442391             0       32.0269      -1.26101             0       9.06924             0             0      0.145785   6.30349e-14      0.366155        102759        103148        274286   1.15492e-13
   0.00900901       288.529       288.352      0.275821       16.8021      -2.22431             0       15.8763      0.458724             0       32.3491      -1.63238             0       10.1386             0             0      0.145625   5.05002e-14       0.36685        102759        103147        274547   9.25258e-14
   0.00950951       288.569       288.349      0.270652       16.2886      -1.99387             0       15.8363      0.484324             0       32.7466      -1.78763             0       11.3159             0             0      0.146723   4.09463e-14      0.362073        102760        103146        274959   7.50212e-14
      0.01001       288.609       288.346       0.26548       15.7798      -1.76783             0       15.7954      0.510171             0       33.1389      -1.93634             0       12.4938             0             0      0.147848   3.14632e-14      0.357182        102761        103145        275374   5.76464e-14
    0.0105105       288.626       288.347      0.260208       15.5043      -1.75734             0       15.7105       0.54807             0       33.2707       -1.7647             0       13.7025             0             0      0.150244   2.54501e-14      0.346765        102761        103143        275902   4.66294e-14
     0.011011       288.642       288.347      0.254982       15.2369      -1.75411             0       15.6243      0.586123             0       33.4012      -1.58817             0        14.912             0             0      0.152666   1.94608e-14       0.33623        102761        103141        276432   3.56558e-14
    0.0115115       288.631       288.352      0.251822       15.3271      -2.07385             0       15.4802      0.631057             0        33.472      -1.19442             0       16.1545             0             0       0.15629   1.45246e-14      0.320475        102761        103140        277100   2.66118e-14
     0.012012       288.619       288.356      0.248682       15.4187      -2.39455             0       15.3346      0.676031             0       33.5492     -0.797512             0       17.3976             0             0      0.159925   9.64195e-15      0.304666        102761        103138        277772   1.76659e-14
    0.0125125       288.571       288.363      0.246359       15.5641      -2.75403             0       15.1261      0.722614             0       33.8864     -0.271956             0       18.6696             0             0      0.164074   6.93517e-15      0.286626        102761        103136        278594   1.27065e-14
     0.013013       288.522        288.37      0.244067       15.7055       -3.1098             0       14.9158      0.769071             0       34.2301      0.254166             0       19.9412             0             0       0.16821   4.27321e-15      0.268637        102760        103134        279422   7.82932e-15
    0.0135135        288.46       288.378      0.242878       15.6954      -3.32638             0       14.6365      0.810819             0       34.8164      0.801499             0       21.1945             0             0        0.1719   3.29045e-15      0.252592        102760        103132        280484   6.02871e-15
     0.014014       288.398       288.386      0.241739       15.6816      -3.53974             0       14.3557      0.852149             0       35.4066       1.34514             0       22.4464             0             0       0.17555   2.32689e-15      0.236717        102760        103130        281553   4.26331e-15
    0.0145145       288.355       288.391      0.242284       15.5389      -3.64125             0       14.0217      0.878956             0       36.1311       1.76073             0       23.6486             0             0      0.177839   2.03046e-15       0.22677        102760        103128        282894   3.72018e-15
     0.015015       288.313       288.397       0.24286       15.3952      -3.74221             0       13.6869      0.905115             0        36.854       2.17043             0        24.849             0             0      0.180097   1.74006e-15      0.216958        102760        103126        284243   3.18811e-15
    0.0155155        288.29         288.4      0.244434       15.2221      -3.82504             0       13.3258      0.910303             0       37.5261       2.38987             0       25.9901             0             0      0.181346   1.64467e-15      0.211527        102760        103124        285837   3.01335e-15
     0.016016       288.266       288.403       0.24599       15.0508       -3.9099             0       12.9646      0.914886             0       38.1862       2.60474             0       27.1296             0             0       0.18259   1.55102e-15      0.206115        102760        103122        287440   2.84176e-15
    0.0165165       288.244       288.404      0.247016       14.9296      -4.05624             0       12.5998      0.901174             0       38.4875       2.68124             0       28.2243             0             0      0.183696   1.50976e-15      0.201306        102760        103121        289319   2.76616e-15
     0.017017       288.221       288.404      0.247929       14.8107      -4.20543             0       12.2357      0.887179             0       38.7727       2.75585             0       29.3179             0             0      0.184799   1.46936e-15      0.196512        102760        103119        291203   2.69214e-15
    0.0175175       288.202       288.401      0.245649       14.7564      -4.43584             0       11.8891      0.865151             0       38.6019        2.7766             0       30.3807             0             0      0.185807    1.4534e-15      0.192137        102759        103117        293227    2.6629e-15
     0.018018       288.183       288.398      0.243283        14.704      -4.66878             0       11.5434      0.843115             0       38.4128       2.79646             0       31.4433             0             0      0.186806   1.43811e-15      0.187805        102759        103115        295256   2.63489e-15
    0.0185185       288.173       288.392       0.23861        14.703      -4.96955             0       11.2199      0.820839             0       37.7327       2.79241             0       32.5005             0             0      0.187542   1.44095e-15      0.184605        102758        103114        297389   2.64009e-15
     0.019019       288.162       288.385      0.234017       14.7028      -5.27202             0        10.897      0.798572             0       37.0319       2.78662             0       33.5593             0             0      0.188271   1.44419e-15      0.181441        102757        103112        299523   2.64603e-15
    0.0195195       288.157        288.38      0.231432       14.7222      -5.61755             0       10.5885      0.776507             0       35.8065       2.73661             0       34.6592             0             0      0.188795   1.45757e-15      0.179158        102755        103111        301691   2.67054e-15
      0.02002       288.152       288.376      0.228921       14.7405      -5.96297             0       10.2804      0.754374             0       34.5666       2.68439             0       35.7613             0             0      0.189312   1.47106e-15      0.176908        102754        103110        303854   2.69525e-15
    0.0205205       288.151       288.378      0.228167       14.7336      -6.30613             0       9.98405      0.730588             0       32.9762       2.57914             0       36.9163             0             0      0.189652   1.48721e-15      0.175426        102752        103108        305874   2.72485e-15
     0.021021       288.149       288.381      0.227418       14.7237      -6.64685             0       9.68812      0.706738             0       31.3807       2.47119             0        38.072             0             0      0.189984   1.50349e-15      0.173986        102750        103107        307885   2.75468e-15
    0.0215215       288.153        288.39      0.226808       14.6432      -6.93217             0       9.40216      0.681432             0        29.668        2.3014             0       39.2442             0             0      0.190099    1.5226e-15      0.173482        102749        103106        309681   2.78968e-15
     0.022022       288.157         288.4      0.226272       14.5577      -7.21306             0       9.11635      0.656042             0       27.9593       2.12855             0       40.4142             0             0      0.190209   1.54178e-15      0.173006        102747        103104        311461   2.82484e-15
    0.0225225       288.165       288.412      0.227357       14.3646      -7.39747             0       8.83366      0.628837             0       26.3373       1.88936             0       41.5357             0             0      0.190177   1.56285e-15      0.173143        102745        103103        312873   2.86343e-15
     0.023023       288.172       288.424      0.228503       14.1661      -7.57682             0       8.55095      0.601398             0       24.7263       1.64784             0       42.6519             0             0      0.190144   1.58371e-15      0.173288        102744        103102        314265   2.90165e-15
    0.0235235       288.176       288.434      0.230894       13.8546      -7.65123             0       8.26777      0.569096             0       23.3425       1.35806             0       43.6591             0             0      0.190075    1.6002e-15      0.173587        102742        103101        315239   2.93186e-15
     0.024024        288.18       288.444      0.233361        13.539      -7.72173             0       7.98499      0.536389             0       21.9733       1.06764             0       44.6591             0             0      0.190001   1.61682e-15      0.173908        102740        103100        316189   2.96232e-15
    0.0245245       288.184       288.453      0.237346       13.1422      -7.71487             0       7.71033      0.495643             0       20.8925       0.76459             0       45.5161             0             0      0.189827   1.63612e-15      0.174665        102739        103100        316684   2.99767e-15
     0.025025       288.188       288.462      0.241337       12.7439      -7.70631             0        7.4368      0.454519             0       19.8306      0.461769             0       46.3649             0             0      0.189646   1.65581e-15      0.175451        102737        103099        317150   3.03375e-15
    0.0255255       288.194       288.472      0.245427       12.3153       -7.6653             0       7.18463       0.40622             0        19.126      0.163237             0       47.0608             0             0      0.189337   1.68302e-15      0.176798        102736        103099        317092   3.08361e-15
     0.026026         288.2       288.482      0.249354       11.8873      -7.62433             0       6.93392      0.357718             0       18.4446     -0.136238             0       47.7483             0             0       0.18903   1.70984e-15      0.178132        102734        103099        317005   3.13274e-15
    0.0265265       288.203       288.491      0.250291        11.471      -7.58397             0       6.70957      0.305497             0       18.1875     -0.452914             0        48.284             0             0      0.188771   1.72942e-15      0.179259        102732        103099        316388   3.16863e-15
     0.027027       288.205       288.499      0.251047       11.0565      -7.54405             0       6.48665      0.253224             0       17.9567     -0.772648             0       48.8113             0             0      0.188521   1.74808e-15      0.180346        102730        103099        315744   3.20281e-15
    0.0275275       288.201       288.507      0.248625       10.6708      -7.51167             0       6.28877      0.200038             0       18.1859      -1.14596             0       49.1892             0             0      0.188432   1.75048e-15      0.180731        102729        103099        314616    3.2072e-15
     0.028028       288.197       288.514      0.246106       10.2866      -7.47922             0       6.09234      0.146897             0       18.4396      -1.52329             0       49.5576             0             0       0.18835   1.75225e-15      0.181088        102727        103099        313466   3.21044e-15
    0.0285285       288.187       288.517      0.241945       9.92819      -7.44531             0       5.92042     0.0945047             0       19.1078      -1.96847             0        49.766             0             0       0.18838    1.7435e-15      0.180958        102725        103099        311941   3.19441e-15
     0.029029       288.177        288.52      0.237827        9.5707      -7.41054             0       5.75002     0.0421867             0        19.793      -2.41658             0       49.9621             0             0      0.188412   1.73468e-15      0.180817        102723        103100        310402   3.17826e-15
    0.0295295       288.166        288.52      0.234401       9.22829      -7.36195             0       5.60437   -0.00892371             0        20.753      -2.91244             0       49.9592             0             0      0.188482   1.72479e-15      0.180511        102721        103100        308650   3.16014e-15
      0.03003       288.156        288.52      0.231022       8.88631      -7.31186             0       5.45997    -0.0598139             0       21.7209      -3.40902             0       49.9398             0             0      0.188554   1.71495e-15      0.180198        102719        103101        306889   3.14211e-15
    0.0305305       288.145       288.519      0.228393        8.5512      -7.23843             0       5.33517     -0.107254             0       22.8123      -3.91684             0       49.6624             0             0      0.188652   1.70581e-15      0.179772        102717        103102        304995   3.12537e-15
     0.031031       288.134       288.518      0.225727       8.21617      -7.16308             0       5.21105     -0.154139             0        23.904      -4.42247             0       49.3649             0             0       0.18875    1.6968e-15      0.179349        102715        103103        303096   3.10885e-15
    0.0315315       288.121       288.517      0.222513       7.88232      -7.05896             0       5.09728     -0.192607             0       24.9987       -4.8949             0       48.7635             0             0      0.188841   1.68959e-15      0.178954        102713        103105        301106   3.09565e-15
     0.032032       288.108       288.515      0.219241       7.54848      -6.95289             0       4.98438     -0.230277             0       26.0874      -5.36349             0       48.1408             0             0      0.188929   1.68266e-15       0.17857        102712        103106        299117   3.08294e-15
    0.0325325       288.093       288.514      0.215136       7.21465      -6.81853             0       4.88414      -0.25628             0       27.0874      -5.77571             0       47.2072             0             0       0.18898   1.67974e-15      0.178349        102710        103108        297137    3.0776e-15
     0.033033       288.079       288.512      0.210969       6.88142      -6.68287             0       4.78568     -0.281507             0       28.0829      -6.18658             0       46.2561             0             0      0.189028   1.67703e-15      0.178138        102708        103109        295162   3.07264e-15
    0.0335335       288.065       288.511       0.20593       6.55656      -6.52876             0       4.71228      -0.29577             0       29.0153      -6.57825             0       45.0595             0             0      0.189044   1.67726e-15       0.17807        102706        103111        293239   3.07304e-15
     0.034034       288.051       288.511      0.200886       6.23355      -6.37467             0       4.64133     -0.309557             0       29.9535      -6.96903             0       43.8508             0             0      0.189057   1.67773e-15      0.178014        102704        103113        291328   3.07392e-15
    0.0345345       288.038        288.51      0.195766       5.93593      -6.22072             0       4.60376     -0.316837             0       30.9723      -7.34766             0        42.477             0             0      0.189028   1.68169e-15      0.178137        102702        103115        289575   3.08117e-15
     0.035035       288.025        288.51      0.190695       5.64171      -6.06823             0       4.56905     -0.324007             0       31.9992      -7.72053             0       41.0946             0             0      0.188997    1.6859e-15      0.178275        102700        103117        287835   3.08888e-15
    0.0355355       288.009       288.509      0.186283       5.39266      -5.93505             0       4.57236     -0.329706             0       33.1329      -8.01708             0       39.5964             0             0      0.188919   1.69337e-15      0.178613        102698        103119        286276   3.10258e-15
     0.036036       287.993       288.508      0.181886        5.1483      -5.80409             0       4.57821     -0.335128             0       34.2789      -8.30841             0        38.093             0             0      0.188837   1.70106e-15      0.178972        102696        103121        284727   3.11666e-15
    0.0365365       287.975       288.508      0.177677       4.96444      -5.70178             0       4.61688     -0.336983             0       35.5828      -8.53241             0       36.5224             0             0      0.188694   1.71139e-15      0.179589        102695        103123        283314   3.13559e-15
     0.037037       287.958       288.508      0.173518       4.78595      -5.60141             0       4.65726     -0.338211             0       36.9097      -8.75756             0       34.9475             0             0      0.188547   1.72179e-15      0.180232        102693        103125        281917   3.15464e-15
    0.0375375        287.94       288.508      0.169984       4.67478      -5.52512             0       4.71906     -0.331598             0       38.5247      -8.99712             0       33.3189             0             0      0.188329   1.73303e-15      0.181177        102691        103127        280718   3.17524e-15
     0.038038       287.922       288.508      0.166665       4.56912      -5.44964             0       4.78258     -0.324493             0       40.1447      -9.24134             0       31.6874             0             0      0.188106   1.74431e-15      0.182148        102690        103129        279536   3.19591e-15
    0.0385385       287.906       288.506       0.16594       4.53044       -5.3838             0         4.867     -0.311403             0       41.8249      -9.54228             0       30.0214             0             0      0.187812   1.75604e-15      0.183428        102689        103132        278550   3.21739e-15
     0.039039       287.891       288.504      0.165472       4.49717      -5.31744             0        4.9534     -0.298142             0       43.4742       -9.8441             0       28.3566             0             0      0.187514   1.76775e-15      0.184722        102687        103134        277580   3.23885e-15
    0.0395395       287.879       288.498      0.168044       4.52774      -5.24499             0       5.06322     -0.282847             0        44.759      -10.1564             0       26.7058             0             0      0.187178   1.77937e-15      0.186184        102687        103136        276789   3.26014e-15
      0.04004       287.867       288.491      0.170778       4.56358      -5.17076             0        5.1737     -0.267577             0       46.0152      -10.4625             0       25.0584             0             0      0.186842    1.7909e-15      0.187642        102686        103138        276024   3.28126e-15
    0.0405405       287.859       288.481      0.175378        4.6601       -5.0762             0       5.29175     -0.252592             0       46.9422      -10.6989             0       23.4493             0             0      0.186517   1.80136e-15      0.189057        102685        103140        275558   3.30042e-15
     0.041041       287.853       288.471      0.180041       4.76178      -4.97861             0        5.4076     -0.237555             0       47.8771      -10.9282             0       21.8435             0             0      0.186198   1.81167e-15      0.190444        102685        103143        275112   3.31931e-15
    0.0415415        287.85       288.459      0.185402       4.92134      -4.84724             0        5.4988     -0.221934             0       48.8995      -11.0784             0       20.2747             0             0      0.185949   1.82036e-15      0.191525        102685        103145        274883   3.33524e-15
     0.042042       287.849       288.447      0.190703       5.08646      -4.71115             0       5.58644     -0.206275             0        49.931      -11.2166             0       18.7069             0             0      0.185707    1.8289e-15      0.192579        102685        103147        274666   3.35088e-15
    0.0425425        287.85       288.435      0.195354       5.31207      -4.52357             0       5.63523     -0.190199             0       51.0609      -11.2236             0       17.1503             0             0      0.185534   1.83573e-15      0.193331        102685        103149        274574   3.36339e-15
     0.043043       287.853       288.423      0.199902        5.5438       -4.3295             0        5.6812     -0.174556             0       52.1441      -11.2044             0       15.5919             0             0      0.185357   1.84266e-15      0.194098        102685        103150        274498    3.3761e-15
    0.0435435       287.859       288.415      0.203364        5.8405      -4.06634             0       5.69724     -0.163513             0       52.7316      -10.9072             0       14.0136             0             0      0.185144   1.85072e-15      0.195026        102685        103152        274601   3.39087e-15
     0.044044       287.866       288.406      0.206804       6.14359      -3.79502             0       5.70979     -0.153296             0       53.2468      -10.5796             0       12.4379             0             0      0.184926   1.85893e-15      0.195973        102685        103154        274711   3.40591e-15
    0.0445445       287.876       288.401       0.21002       6.51283      -3.43924             0        5.6861     -0.151636             0       53.0132      -9.93863             0       10.8898             0             0      0.184663   1.86867e-15      0.197115        102685        103156        274901   3.42375e-15
     0.045045       287.887       288.395       0.21306       6.88611        -3.076             0       5.65674     -0.150037             0       52.7491      -9.27364             0       9.35221             0             0      0.184405   1.87829e-15      0.198238        102685        103158        275097   3.44138e-15
    0.0455455         287.9       288.388      0.214316       7.30031      -2.63727             0       5.56996     -0.149051             0       52.1761      -8.36606             0       7.92179             0             0      0.184192   1.88672e-15      0.199165        102685        103160        275357   3.45683e-15