#           y             T         TMean   TPrime2Mean           U_x           U_y           U_z       UMean_x       UMean_y       UMean_z UPrime2Mea... UPrime2Mea... UPrime2Mea... UPrime2Mea... UPrime2Mea... UPrime2Mea...            O2           H2O          C3H8             p         pMean   pPrime2Mean           CO2
  1.11022e-19       287.905       288.016     0.0842171       28.4315   5.11369e-16             0       22.6571   -3.8774e-16             0       11.0542  -7.40829e-17             0   9.67652e-17             0             0      0.229837   1.16545e-08   0.000706414        102702        103092        228553   2.13533e-08
  0.000500501       288.039       288.018     0.0842587       28.4341     -0.418999             0       22.6586     0.0146203             0       11.0795     -0.133402             0     0.0317418             0             0      0.229361   7.77948e-08     0.0027776        102706        103092        228464   1.42535e-07
     0.001001       288.176       288.019     0.0843536       28.4366     -0.838104             0       22.6602     0.0292401             0       11.1049     -0.266816             0     0.0636188             0             0      0.228878   1.45508e-07    0.00487336        102711        103092        228375   2.66598e-07
    0.0015015       289.986       288.037      0.111025       28.3765      -1.30976             0       22.6641     0.0435946             0       11.1729     -0.406339             0      0.162898             0             0      0.225573   9.98036e-07     0.0192258        102725        103091        228229   1.82859e-06
     0.002002       291.834       288.055      0.143876       28.3158      -1.78216             0        22.668      0.057942             0       11.2413     -0.545915             0      0.262626             0             0       0.22224   1.86963e-06     0.0336956        102738        103091        228083   3.42551e-06
    0.0025025       303.084       288.188       1.71528        28.138      -2.43664             0       22.6753     0.0704982             0       11.4148     -0.698653             0      0.474038             0             0      0.212173   7.48833e-06     0.0773818        102750        103091        227904     1.372e-05
     0.003003       314.413       288.323       3.37147       27.9607      -3.09291             0       22.6827     0.0830498             0       11.5889     -0.851755             0      0.686857             0             0      0.202099   1.31647e-05      0.121097        102761        103090        227726   2.41202e-05
    0.0035035       338.996       288.774       19.0734       27.8781      -4.04594             0       22.7057     0.0948547             0       11.8712      -1.06495             0       1.13298             0             0      0.190914   2.83965e-05      0.169563        102759        103090        227620   5.20276e-05
     0.004004       363.665       289.228       35.0873        27.804      -5.00064             0       22.7291      0.106635             0       12.1547      -1.27916             0       1.58151             0             0      0.179786   4.37699e-05       0.21778        102756        103089        227516   8.01945e-05
    0.0045045       399.032       290.021         89.78       28.7929      -6.16247             0        22.795      0.115356             0       12.5806      -1.61866             0        2.3291             0             0      0.175705   7.67084e-05      0.235202        102758        103087        227562   0.000140544
   0.00500501       434.433       290.815       145.113       29.7934      -7.31947             0       22.8616      0.124104             0       13.0075      -1.95892             0       3.07729             0             0      0.171668   0.000109968      0.252427        102761        103086        227608   0.000201482
   0.00550551       473.216       291.798       263.827       31.9341      -7.99835             0       22.9951      0.135486             0        13.533      -2.37447             0       3.88417             0             0      0.172039   0.000174989      0.250157        102766        103085        227709   0.000320613
   0.00600601       511.872       292.779       382.856       34.0637      -8.67335             0       23.1273      0.146877             0       14.0566      -2.79042             0       4.68907             0             0      0.172377   0.000241244      0.248018        102772        103083        227807   0.000442004
   0.00650651       540.143       293.708       527.823       35.2742      -9.02853             0       23.1496      0.158988             0       14.4225      -3.23902             0       5.33144             0             0      0.170012   0.000409007      0.256589        102774        103082        227731   0.000749378
   0.00700701       568.232       294.632       672.289       36.4615      -9.38234             0       23.1671      0.171165             0       14.7823      -3.68391             0       5.97067             0             0      0.167588   0.000579777       0.26539        102776        103081        227651    0.00106226
   0.00750751       583.462        295.27       781.468       36.0086      -9.63987             0       22.8405      0.187963             0         14.71      -3.86679             0       6.38845             0             0      0.160926   0.000962274      0.290431        102763        103079        227392    0.00176307
   0.00800801       598.551       295.907       890.573       35.5467      -9.89105             0       22.5054      0.205053             0       14.6301      -4.04266             0       6.80406             0             0      0.154228    0.00135287      0.315547        102751        103078        227130    0.00247872
   0.00850851       604.918       296.416       995.168       34.5319      -9.75087             0       21.6449      0.240159             0         14.08      -3.78672             0       7.08663             0             0      0.145337    0.00224178      0.345235        102744        103077        226698    0.00410735
   0.00900901        611.24       296.928        1100.8       33.5104      -9.60175             0       20.7763      0.275214             0       13.5249      -3.52523             0       7.36299             0             0      0.136439    0.00313677      0.374888        102737        103076        226263    0.00574716
   0.00950951       615.163       297.552       1262.81       32.1213       -8.9649             0       19.4581       0.30748             0       12.6984      -2.96108             0       7.30037             0             0      0.127208    0.00436435      0.402614        102746        103076        225600    0.00799631
      0.01001       619.089       298.178       1426.42       30.7276      -8.32528             0       18.1398      0.339042             0       11.8782      -2.39939             0       7.23187             0             0      0.118029    0.00557198      0.430307        102756        103076        224935     0.0102089
    0.0105105        623.15       298.902       1668.03       29.1031      -7.54972             0        16.812       0.33609             0       11.3734      -1.95804             0       6.87553             0             0      0.111467    0.00580193      0.456399        102757        103076        224183     0.0106302
     0.011011       627.178       299.626       1911.56       27.4901      -6.78087             0        15.495      0.331918             0       10.8919      -1.53216             0       6.52607             0             0      0.104992    0.00600433      0.482392        102758        103076        223430     0.0110011
    0.0115115       629.686       300.401       2240.58       26.3889      -6.31017             0       14.6511      0.273494             0       11.4488       -1.7937             0       6.48301             0             0      0.102397    0.00498176      0.504027        102754        103076        222658    0.00912751
     0.012012       632.085       301.172       2569.64       25.2947      -5.84309             0         13.82      0.215167             0       12.0318      -2.06853             0       6.45205             0             0     0.0999231    0.00395773      0.525154        102750        103076        221887    0.00725129
    0.0125125       630.068         301.8       2899.76        24.482      -5.52376             0       13.5037      0.160788             0       13.6744      -2.88369             0       6.91325             0             0      0.102352    0.00287418      0.525658        102736        103076        221086    0.00526603
     0.013013       627.707       302.414        3224.7       23.6793      -5.20714             0       13.1958       0.10624             0        15.347      -3.70361             0       7.38693             0             0       0.10484    0.00180305      0.525773        102722        103075        220285    0.00330353
    0.0135135       612.506       302.545       3355.53       23.2507      -4.99178             0       13.1975     0.0453923             0       18.1432      -4.70233             0       8.32804             0             0      0.109578    0.00119745      0.511343        102706        103074        219446    0.00219395
     0.014014       596.936       302.657          3478       22.8391      -4.77573             0       13.2067    -0.0151671             0       20.9533      -5.69985             0       9.28085             0             0      0.114404   0.000602416      0.496422        102691        103072        218607    0.00110374
    0.0145145       568.553       302.141       3310.55       23.0196      -4.53574             0       13.4758    -0.0657065             0       24.2448      -6.65575             0       10.6398             0             0      0.122299   0.000374373      0.464423        102677        103070        217764   0.000685922
     0.015015       539.934       301.613       3138.09       23.2137      -4.29357             0       13.7521     -0.116017             0       27.5285      -7.60407             0       12.0079             0             0       0.13031   0.000151363      0.431868        102663        103068        216922   0.000277326
    0.0155155       503.735         300.7        2803.2       23.8476      -3.98103             0       14.2621     -0.158921             0       30.5646      -8.30766             0       13.6751             0             0      0.142072   9.10936e-05      0.381349        102650        103066        216117     0.0001669
     0.016016       467.494       299.784       2467.85       24.4991      -3.66847             0       14.7798     -0.201028             0       33.5988      -8.99281             0       15.3478             0             0      0.153805   3.23339e-05      0.330941        102636        103063        215323   5.92418e-05
    0.0165165       430.027       298.782       2118.51       25.6823      -3.35497             0       15.5337      -0.21903             0       36.5793      -9.12014             0       17.1872             0             0      0.164654   1.92503e-05      0.283907        102624        103059        214881   3.52702e-05
     0.017017       392.841        297.78       1770.52       26.8762      -3.03934             0       16.2957     -0.235148             0       39.5595      -9.20185             0       19.0279             0             0      0.175425   6.52221e-06      0.237209        102612        103056        214461   1.19499e-05
    0.0175175        363.63        296.76       1460.68       28.3732      -2.66314             0       17.2927     -0.197713             0       42.5329      -7.98753             0       20.9041             0             0      0.183971   3.89351e-06      0.200082        102599        103052        214659   7.13364e-06
     0.018018       334.931        295.74       1153.14       29.8718      -2.28244             0       18.2845     -0.158688             0       45.4896      -6.73696             0       22.7814             0             0      0.192463   1.33949e-06      0.163191        102586        103048        214882    2.4542e-06
    0.0185185       319.934       294.698       907.294       31.4131      -1.78123             0       19.1396    -0.0770504             0       47.9958      -4.51555             0       24.6864             0             0      0.199499   7.85091e-07      0.132602        102566        103043        215779   1.43843e-06
     0.019019       305.319       293.659       664.469       32.9252      -1.27175             0       19.9792    0.00354702             0       50.4481      -2.29852             0       26.5937             0             0      0.206481   2.47648e-07      0.102252        102545        103039        216702   4.53737e-07
    0.0195195       300.356       292.697       498.058       33.7005     -0.553161             0       20.4262     0.0578216             0       51.5332     -0.191968             0       28.5606             0             0      0.212079   1.39491e-07     0.0779143        102512        103034        218290   2.55573e-07
      0.02002       295.509       291.747       334.767       34.4332       0.15982             0       20.8627      0.111154             0       52.5353       1.89797             0       30.5392             0             0      0.217562   3.50126e-08     0.0540783        102479        103029        219903   6.41496e-08
    0.0205205       293.446       291.078       246.362       34.1437      0.738262             0       21.0464      0.141881             0       51.5411       3.58925             0       32.7998             0             0      0.220278   1.88253e-08       0.04227        102443        103024        222086   3.44914e-08
     0.021021       291.426       290.421       159.929       33.8191       1.29888             0       21.2215      0.171672             0       50.4782       5.26133             0       35.0702             0             0      0.222888    3.2551e-09     0.0309223        102406        103018        224281   5.96395e-09
    0.0215215       290.395       290.029       118.478        32.696       1.45282             0          21.2      0.180108             0       47.8441       6.49545             0       37.5644             0             0      0.223081   1.76095e-09     0.0300805        102371        103013        226748   3.22639e-09
     0.022022       289.393       289.642       77.9074       31.5326       1.58604             0       21.1675      0.186975             0       45.1807       7.71044             0        40.062             0             0      0.223244   3.26588e-10      0.029372        102336        103008        229224    5.9837e-10
    0.0225225       289.011       289.371       56.4873       29.4959       1.26879             0       20.8967      0.159742             0       41.8802       8.50978             0       42.6338             0             0      0.222741   1.91231e-10     0.0315588        102309        103002        231872    3.5037e-10
     0.023023       288.639       289.103       35.5254       27.4331      0.932614             0       20.6128       0.13028             0        38.611       9.28711             0       45.2078             0             0      0.222244    6.1795e-11     0.0337205        102283        102997        234534    1.1322e-10
    0.0235235       288.498       288.905        24.069       24.8317      0.203674             0       20.0608     0.0545924             0       35.9902       9.60795             0       47.8278             0             0      0.221866    5.5165e-11     0.0353615        102270        102991        237472   1.01073e-10
     0.024024        288.36        288.71       12.9314       22.2295      -0.53631             0       19.5047    -0.0233606             0       33.4463        9.9177             0       50.4518             0             0      0.221495   4.93778e-11     0.0369771        102258        102986        240426   9.04694e-11
    0.0245245       288.275       288.589       8.11689       19.6129      -1.49533             0       18.8653     -0.146248             0       32.4281       10.0078             0       53.1523             0             0       0.22124   6.03043e-11     0.0380861        102257        102981        243711   1.10489e-10
     0.025025       288.194       288.471       3.47432       17.0097      -2.45822             0       18.2307      -0.27027             0       31.4352        10.104             0       55.8579             0             0      0.220975   7.07572e-11     0.0392358        102256        102975        247010    1.2964e-10
    0.0255255       288.165       288.412       2.09796       14.6606       -3.4947             0       17.6841     -0.415859             0        30.922       10.3156             0       58.6591             0             0      0.220533   7.22136e-11     0.0411587        102260        102970        250580   1.32309e-10
     0.026026       288.138       288.355      0.778653       12.3384      -4.52391             0        17.138      -0.56239             0       30.3822       10.5259             0       61.4587             0             0      0.220068   7.29096e-11     0.0431794        102263        102965        254154   1.33584e-10
    0.0265265        288.15       288.331      0.499525       10.5069      -5.42067             0       16.6011     -0.726078             0       29.3548       10.7118             0       64.2306             0             0      0.219193    5.9743e-11     0.0469849        102266        102958        257820    1.0946e-10
     0.027027       288.159       288.307      0.232723       8.71266       -6.3016             0       16.0583     -0.891066             0       28.3164       10.8851             0       66.9963             0             0      0.218317   4.65889e-11     0.0507927        102268        102952        261487   8.53595e-11
    0.0275275       288.117       288.299      0.181828       7.57242       -6.9052             0       15.4109      -1.07882             0       27.0848       10.8402             0       69.6548             0             0      0.217433   3.36517e-11     0.0546396        102269        102945        265165   6.16561e-11
     0.028028       288.071       288.291      0.133308       6.46518      -7.49263             0       14.7581       -1.2677             0       25.8667       10.7856             0       72.2972             0             0      0.216586   2.10973e-11     0.0583211        102271        102938        268834   3.86543e-11
    0.0285285        287.98       288.287      0.124827       5.91406      -7.80728             0        14.016      -1.47562             0       24.8766       10.5693             0         74.67             0             0      0.216381   1.49974e-11     0.0592136        102274        102931        272364   2.74781e-11
     0.029029       287.891       288.282       0.11694       5.36823      -8.12093             0       13.2696      -1.68417             0       23.9162       10.3514             0       77.0143             0             0      0.216216   9.07788e-12     0.0599326        102277        102924        275860   1.66324e-11
    0.0295295       287.841       288.275      0.118691       4.90839      -8.41819             0       12.4546      -1.90282             0       23.4366       10.1064             0       78.8967             0             0      0.216699   6.08738e-12      0.057832        102282        102917        278803   1.11532e-11
      0.03003       287.795       288.267      0.120538       4.43482       -8.7249             0       11.6358      -2.12168             0       23.0003       9.87149             0       80.7385             0             0      0.217187   3.19259e-12     0.0557109        102287        102910        281691   5.84942e-12
    0.0305305       287.806       288.262      0.123891         3.746      -9.17949             0       10.7568      -2.34406             0       23.2425       9.79387             0       81.9418             0             0      0.217749   1.79733e-12     0.0532671        102292        102903        283740   3.29304e-12
     0.031031       287.818       288.256      0.127057        3.0567      -9.63653             0        9.8734      -2.56572             0       23.5365       9.73367             0       83.0998             0             0      0.218285   4.74351e-13     0.0509353        102296        102897        285728   8.69099e-13
    0.0315315       287.843       288.254      0.127397       2.36021      -10.1307             0       8.92348      -2.77643             0       24.6158       9.93697             0       83.5709             0             0      0.218432   2.44965e-13     0.0502963        102297        102891        286783   4.48822e-13
     0.032032       287.867       288.252      0.127636        1.6701      -10.6233             0       7.97116      -2.98622             0       25.7283       10.1522             0       84.0027             0             0      0.218554   2.93901e-14     0.0497636        102298        102886        287783   5.38482e-14
    0.0325325       287.876        288.25      0.126403       1.07347      -11.0939             0       6.98388      -3.18266             0       27.3261        10.542             0       83.8577             0             0       0.21832   1.57897e-14     0.0507841        102293        102882        287984   2.89297e-14
     0.033033       287.884       288.249      0.125171      0.474886      -11.5652             0       5.99659      -3.37794             0       28.9079        10.931             0       83.6819             0             0      0.218071   3.01018e-15     0.0518635        102289        102878        288161   5.51521e-15
    0.0335335       287.881       288.248      0.123961     -0.151189      -12.0463             0       5.00935      -3.55674             0       30.2619       11.3103             0       83.0721             0             0      0.217631   1.84666e-15     0.0537764        102283        102875        287979   3.38342e-15
     0.034034       287.877       288.248      0.122809     -0.778116      -12.5246             0       4.02274      -3.73426             0       31.5511       11.6717             0       82.4332             0             0      0.217155   7.60513e-16     0.0558472        102277        102872        287794    1.3934e-15
    0.0345345       287.865       288.249      0.122446       -1.4167      -12.9661             0       3.04486      -3.89441             0       31.9515       11.7892             0       81.3976             0             0      0.216181    7.3491e-16     0.0600835        102270        102870        287580   1.34649e-15
     0.035035       287.852        288.25      0.122159       -2.0558      -13.4047             0       2.06733      -4.05345             0       32.2718       11.8747             0       80.3289             0             0       0.21516   7.13268e-16     0.0645196        102263        102868        287369   1.30684e-15
    0.0355355       287.826       288.252       0.12288      -2.70175      -13.8042             0       1.09424      -4.19769             0       31.5275       11.5339             0       78.8194             0             0      0.213529   7.44247e-16     0.0716114        102255        102868        287208    1.3636e-15
     0.036036       287.798       288.253      0.123678      -3.35226      -14.2007             0      0.121077      -4.34096             0       30.7422       11.1607             0       77.2708             0             0      0.211894   7.77064e-16      0.078721        102247        102867        287039   1.42373e-15
    0.0365365       287.757       288.255      0.125457      -4.06159      -14.5567             0     -0.853016      -4.47162             0       29.4289       10.3698             0       75.2168             0             0      0.210206   8.33577e-16     0.0860587        102235        102869        286773   1.52727e-15
     0.037037       287.714       288.257       0.12733       -4.7756      -14.9089             0      -1.82687       -4.6006             0       28.1408       9.56745             0       73.1237             0             0      0.208507   8.91621e-16     0.0934478        102224        102870        286480   1.63362e-15
    0.0375375       287.666       288.257      0.130377      -5.54803      -15.2133             0      -2.79769      -4.70851             0        27.168       8.62354             0       70.5425             0             0      0.206659   9.68819e-16      0.101479        102209        102873        285837   1.77506e-15
     0.038038       287.619       288.258       0.13351      -6.32382      -15.5122             0      -3.76673      -4.81372             0        26.271       7.70185             0       67.9289             0             0      0.204827   1.04579e-15      0.109444        102194        102877        285152   1.91609e-15
    0.0385385       287.579       288.258      0.137673      -7.14053      -15.7427             0      -4.71405      -4.88608             0       26.2956       7.05031             0       64.9209             0             0      0.203179   1.12004e-15      0.116612        102180        102882        283947   2.05212e-15
     0.039039       287.541       288.257      0.141918      -7.95698      -15.9647             0      -5.65648      -4.95482             0       26.4154       6.44706             0       61.8926             0             0      0.201578   1.19218e-15      0.123575        102167        102887        282701    2.1843e-15
    0.0395395       287.529       288.253      0.147139      -8.77034       -16.085             0      -6.54104      -4.98076             0       27.6607       6.41465             0       58.6234             0             0      0.200533   1.23944e-15      0.128116        102162        102894        280961   2.27088e-15
      0.04004       287.519        288.25      0.152298      -9.57609      -16.1924             0      -7.41653      -5.00249             0        28.993       6.43484             0       55.3443             0             0      0.199503   1.28474e-15      0.132594        102159        102902        279188   2.35388e-15
    0.0405405       287.529       288.246      0.156744      -10.2944      -16.1502             0      -8.18766       -4.9757             0       31.3253       7.05992             0       51.9506             0             0       0.19864   1.30751e-15      0.136345        102167        102910        277029   2.39561e-15
     0.041041        287.54       288.242      0.160949      -10.9966      -16.0892             0      -8.94576      -4.94418             0        33.709       7.72009             0        48.552             0             0      0.197732   1.32855e-15      0.140293        102176        102919        274851   2.43416e-15
    0.0415415       287.561       288.241      0.162471      -11.5177       -15.818             0      -9.55811      -4.85966             0       36.6684       8.77327             0        45.099             0             0      0.196315   1.33018e-15      0.146457        102195        102929        272463   2.43714e-15
     0.042042       287.583       288.239      0.163942      -12.0124      -15.5239             0      -10.1552      -4.77016             0       39.6316       9.83338             0       41.6471             0             0      0.194839   1.32969e-15       0.15287        102216        102939        270074   2.43624e-15
    0.0425425       287.609        288.24       0.16486      -12.2196      -14.9796             0      -10.5857      -4.62649             0       42.6364       10.9693             0       38.2084             0             0      0.192739   1.30606e-15      0.162001        102241        102948        267672   2.39294e-15
     0.043043       287.633       288.241      0.165805      -12.3919      -14.4088             0      -11.0007      -4.47743             0       45.6317       12.0852             0       34.7801             0             0      0.190691   1.27993e-15      0.170905        102266        102958        265284   2.34507e-15
    0.0435435       287.648        288.24      0.167034      -12.1934      -13.5574             0      -11.2508      -4.27101             0       48.5258       12.9888             0       31.4624             0             0      0.189196   1.22728e-15      0.177408        102288        102967        263041    2.2486e-15
     0.044044       287.663        288.24      0.167994      -11.9554      -12.6816             0      -11.4856       -4.0597             0       51.4523       13.8626             0       28.1619             0             0      0.187755   1.17361e-15      0.183671        102310        102977        260832   2.15027e-15
    0.0445445       287.675       288.238      0.166171      -11.3092      -11.5523             0      -11.5621      -3.79762             0       54.7155       14.4287             0       25.0392             0             0      0.186884   1.10942e-15      0.187458        102324        102985        258972   2.03266e-15
     0.045045       287.687       288.235      0.164156      -10.6248      -10.4063             0      -11.6241      -3.53152             0       58.0888        14.958             0       21.9322             0             0       0.18602   1.04654e-15      0.191214        102336        102994        257156   1.91746e-15
    0.0455455       287.701        288.23      0.160199      -9.55414      -9.08979             0      -11.5386       -3.2249             0       62.5755        15.116             0       18.9842             0             0      0.185227   9.96993e-16      0.194665        102338        103002        255780   1.82668e-15