#           y             T         TMean   TPrime2Mean           U_x           U_y           U_z       UMean_x       UMean_y       UMean_z UPrime2Mea... UPrime2Mea... UPrime2Mea... UPrime2Mea... UPrime2Mea... UPrime2Mea...            O2           H2O          C3H8             p         pMean   pPrime2Mean           CO2
            0        287.73       288.309      0.232196       28.6078             0             0       14.0518             0             0       27.0447             0             0             0             0             0      0.222908   1.50562e-16     0.0308336        102372        103166        260551   2.75858e-16
  0.000500501       287.753       288.314      0.233552       28.6587      0.452271             0       14.0637     0.0190211             0       27.0504     0.0670303             0     0.0730029             0             0      0.221547   1.67817e-16     0.0367525        102371        103166        260561   3.07472e-16
     0.001001       287.775        288.32      0.234912       28.7098       0.90446             0       14.0755     0.0380442             0       27.0562      0.134078             0      0.146199             0             0      0.220178   1.85144e-16      0.042703        102370        103166        260572   3.39218e-16
    0.0015015       287.817       288.332      0.238458       28.8372       1.31559             0       14.1029     0.0580633             0       27.1593        0.2099             0      0.315929             0             0      0.215186   2.38219e-16     0.0644055        102369        103166        260562   4.36462e-16
     0.002002        287.86       288.344       0.24202        28.964       1.72638             0       14.1303     0.0780781             0        27.263      0.285642             0      0.486128             0             0      0.210178   2.91417e-16     0.0861786        102367        103166        260552   5.33931e-16
    0.0025025       287.933       288.355      0.249524       28.9619       2.05285             0       14.1687     0.0969965             0       27.5325      0.341514             0      0.773351             0             0      0.201131   3.75202e-16      0.125517        102364        103165        260506    6.8744e-16
     0.003003       288.006       288.366      0.257037       28.9574       2.37865             0       14.2072      0.115886             0       27.8026      0.396888             0       1.06138             0             0      0.192083   4.59077e-16       0.16486        102361        103165        260460   8.41115e-16
    0.0035035       288.126       288.373      0.266182       28.5568       2.59427             0       14.2608      0.130003             0        28.189      0.369699             0       1.48257             0             0       0.18283   5.57824e-16      0.205091        102357        103164        260340   1.02204e-15
     0.004004       288.247        288.38      0.275253       28.1538       2.80899             0       14.3145      0.144075             0       28.5752      0.341587             0       1.90482             0             0      0.173613   6.56335e-16      0.245167        102353        103164        260219   1.20253e-15
    0.0045045       288.355       288.387      0.275145       27.4378       2.91198             0       14.3687      0.152516             0       28.9517      0.198856             0       2.45814             0             0      0.168842   7.25513e-16        0.2659        102349        103163        260020   1.32927e-15
   0.00500501       288.463       288.394       0.27494       26.7215       3.01439             0       14.4225      0.160936             0       29.3255     0.0555283             0       3.01235             0             0      0.164109    7.9431e-16      0.286473        102346        103163        259821   1.45532e-15
   0.00550551       288.581       288.404      0.265081       25.9823       3.06036             0       14.4415      0.167251             0       29.4263     -0.146894             0       3.65444             0             0      0.163038   8.25503e-16      0.291132        102343        103162        259602   1.51248e-15
   0.00600601       288.698       288.414      0.255216       25.2442       3.10618             0       14.4598      0.173598             0       29.5202     -0.348666             0        4.2967             0             0      0.161983   8.56628e-16       0.29572        102341        103161        259383    1.5695e-15
   0.00650651        288.79       288.424      0.244921       24.5941       3.13992             0       14.4122      0.182513             0       29.0367     -0.496884             0       4.95209             0             0      0.162284   8.82126e-16      0.294417        102338        103160        259114   1.61622e-15
   0.00700701       288.882       288.435      0.234664        23.945       3.17372             0       14.3637      0.191496             0       28.5441     -0.643407             0        5.6069             0             0      0.162607   9.07771e-16      0.293015        102336        103160        258843    1.6632e-15
   0.00750751       288.895       288.444      0.227121       23.3718        3.2116             0       14.2447      0.205258             0       27.4042     -0.670529             0       6.22068             0             0      0.164534   9.43748e-16      0.284636        102334        103159        258526   1.72912e-15
   0.00800801       288.908       288.454      0.219603       22.7996       3.24992             0       14.1249      0.219065             0       26.2581     -0.696468             0       6.83386             0             0      0.166479   9.79842e-16      0.276183        102332        103158        258208   1.79525e-15
   0.00850851       288.909       288.463      0.213631       22.2929       3.31531             0       13.9576      0.235607             0       24.7344     -0.649626             0       7.40976             0             0      0.169475   1.02305e-15      0.263157        102330        103157        257881   1.87442e-15
   0.00900901        288.91       288.472      0.207676       21.7872       3.38186             0       13.7899      0.252133             0       23.2102     -0.602998             0       7.98545             0             0      0.172455   1.06597e-15      0.250202        102328        103156        257554   1.95305e-15
   0.00950951       288.916       288.483      0.202726       21.3372       3.51128             0       13.6033      0.267814             0       21.6547     -0.568104             0       8.54931             0             0      0.174538   1.09319e-15      0.241143        102327        103155        257222   2.00293e-15
      0.01001       288.921       288.493      0.197809        20.888       3.64259             0       13.4167      0.283468             0       20.1017     -0.533696             0       9.11283             0             0      0.176596   1.11999e-15      0.232198        102326        103154        256891   2.05204e-15
    0.0105105        288.93       288.505      0.194507       20.4829       3.86607             0        13.226      0.297833             0       18.6728     -0.523136             0       9.65954             0             0      0.177368   1.12634e-15       0.22884        102326        103153        256557   2.06367e-15
     0.011011       288.938       288.516      0.191279       20.0783       4.09186             0        13.035      0.312226             0       17.2459     -0.511993             0       10.2051             0             0       0.17813   1.13235e-15      0.225524        102325        103153        256223   2.07468e-15
    0.0115115        288.95       288.526      0.191376       19.6937        4.4205             0       12.8363       0.32791             0        15.908     -0.474899             0        10.701             0             0      0.178463    1.1233e-15      0.224074        102324        103152        255885   2.05809e-15
     0.012012       288.962       288.536      0.191524        19.309       4.75142             0       12.6372      0.343632             0        14.572     -0.436816             0       11.1954             0             0      0.178792   1.11396e-15      0.222637        102323        103151        255548   2.04098e-15
    0.0125125       288.973       288.545      0.193797       18.9154       5.17525             0       12.4266      0.360942             0         13.31     -0.358496             0       11.6266             0             0      0.178998   1.09306e-15      0.221742        102322        103150        255267   2.00268e-15
     0.013013       288.984       288.554      0.196027       18.5211       5.60075             0        12.216      0.378226             0       12.0536     -0.280089             0       12.0566             0             0        0.1792   1.07206e-15      0.220863        102321        103149        254986   1.96422e-15
    0.0135135       288.994       288.562      0.196663        18.102       6.08872             0       12.0055       0.39456             0       11.0075     -0.198392             0       12.4376             0             0      0.179262   1.04746e-15      0.220595        102321        103149        254728   1.91913e-15
     0.014014       289.003        288.57      0.197233        17.682       6.57737             0       11.7952      0.410871             0       9.97166     -0.116643             0       12.8162             0             0      0.179321   1.02279e-15      0.220343        102320        103148        254470   1.87395e-15
    0.0145145       289.009       288.576      0.195513       17.2326       7.08962             0       11.5921        0.4264             0       9.29143    -0.0330477             0       13.1109             0             0      0.179249   9.96077e-16      0.220656        102319        103148        254228     1.825e-15
     0.015015       289.016       288.582      0.193763       16.7817       7.60157             0       11.3888      0.442048             0        8.6232     0.0515788             0       13.4001             0             0      0.179177   9.69389e-16      0.220972        102318        103147        253987    1.7761e-15
    0.0155155       289.011       288.588      0.191059       16.2868       8.10391             0       11.1797      0.461536             0       8.34256      0.169545             0       13.5094             0             0      0.179077    9.4356e-16      0.221405        102317        103147        253788   1.72878e-15
     0.016016       289.006       288.594      0.188387       15.7898       8.60538             0       10.9702      0.481199             0       8.07534      0.286979             0       13.6118             0             0      0.178983   9.17978e-16      0.221817        102315        103147        253590   1.68191e-15
    0.0165165        288.98       288.598      0.186669       15.2329       9.08031             0       10.7456      0.506183             0       8.21385      0.388352             0       13.5019             0             0      0.179033   8.99865e-16      0.221595        102313        103147        253425   1.64872e-15
     0.017017       288.953       288.602      0.185022        14.674       9.55379             0       10.5209      0.531187             0       8.36782      0.484958             0       13.3872             0             0      0.179095   8.81925e-16      0.221326        102311        103147        253260   1.61585e-15
    0.0175175       288.902       288.604       0.18536       14.0594       9.98565             0       10.2915      0.556761             0       8.96133      0.446122             0       13.1385             0             0      0.179468     8.689e-16      0.219704        102309        103147        253096   1.59199e-15
     0.018018       288.849       288.605      0.185777       13.4442       10.4153             0       10.0623      0.582213             0       9.56924      0.400656             0       12.8875             0             0      0.179858   8.55778e-16      0.218009        102307        103147        252932   1.56794e-15
    0.0185185       288.774       288.605      0.188309       12.8132       10.7856             0       9.83828        0.6044             0       10.5624      0.177636             0       12.5778             0             0      0.180696    8.4003e-16      0.214366        102305        103147        252776   1.53909e-15
     0.019019       288.698       288.605      0.190907       12.1835       11.1528             0       9.61457      0.626494             0       11.5648    -0.0493443             0       12.2665             0             0      0.181556    8.2395e-16      0.210625        102302        103147        252621   1.50963e-15
    0.0195195       288.604       288.604      0.195164       11.5898       11.4407             0       9.39819      0.646233             0       12.7979     -0.376593             0        11.915             0             0      0.182992   7.99468e-16      0.204382        102300        103147        252482   1.46477e-15
      0.02002        288.51       288.603      0.199479       10.9993       11.7247             0       9.18208      0.666015             0       14.0337     -0.702015             0        11.562             0             0      0.184449   7.74678e-16      0.198049        102298        103147        252341   1.41935e-15
    0.0205205       288.408       288.602      0.205185        10.483       11.9152             0       8.97218      0.686862             0       15.3327     -0.983601             0       11.1746             0             0      0.186405    7.4251e-16      0.189543        102297        103148        252155   1.36042e-15
     0.021021       288.306       288.601      0.210992       9.97086       12.1018             0       8.76285      0.707985             0       16.6235      -1.25907             0       10.7855             0             0      0.188361   7.10325e-16       0.18104        102295        103148        251969   1.30145e-15
    0.0215215       288.212       288.602      0.219088       9.55493       12.1989             0       8.56642      0.735393             0        17.729      -1.39499             0       10.3564             0             0      0.190308    6.7775e-16      0.172575        102293        103148        251775   1.24176e-15
     0.022022       288.119       288.603      0.227333       9.14316       12.2927             0       8.37123       0.76285             0        18.813      -1.52103             0       9.92726             0             0      0.192232   6.45517e-16       0.16421        102291        103148        251581   1.18271e-15
    0.0225225       288.046       288.606      0.238794       8.82197       12.3163             0       8.20304       0.79139             0       19.4316      -1.43226             0       9.49884             0             0      0.193658   6.20723e-16      0.158008        102289        103149        251418   1.13728e-15
     0.023023       287.973       288.609      0.250258       8.50413       12.3373             0       8.03589      0.820173             0       20.0338      -1.33766             0       9.07301             0             0      0.195056   5.96379e-16      0.151932        102287        103149        251256   1.09268e-15
    0.0235235       287.924       288.611      0.261788       8.25595       12.3038             0        7.8903      0.854019             0       20.2962       -1.1221             0       8.70112             0             0      0.195854   5.81383e-16      0.148462        102286        103149        251140    1.0652e-15
     0.024024       287.875       288.613       0.27319       8.01097       12.2669             0       7.74544      0.888154             0       20.5519     -0.903009             0       8.33241             0             0      0.196621   5.66802e-16      0.145127        102285        103149        251026   1.03849e-15
    0.0245245       287.849       288.615       0.28206       7.82929       12.1641             0       7.61489      0.928014             0       20.6763     -0.613907             0       8.02693             0             0      0.196775   5.60454e-16      0.144459        102284        103149        250957   1.02686e-15
     0.025025       287.825       288.617       0.29086       7.65168       12.0564             0       7.48487      0.967988             0       20.8029     -0.321074             0       7.72481             0             0      0.196898   5.54473e-16      0.143924        102283        103149        250892    1.0159e-15
    0.0255255       287.822       288.622      0.298341       7.55114        11.855             0       7.36511       1.01012             0       20.9722     0.0426427             0        7.4863             0             0      0.196439   5.55463e-16      0.145919        102283        103149        250906   1.01771e-15
     0.026026       287.821       288.628      0.305681        7.4522       11.6501             0        7.2454       1.05274             0       21.1608      0.399827             0        7.2532             0             0      0.195971   5.56559e-16      0.147954        102282        103149        250926   1.01972e-15
    0.0265265       287.829       288.634      0.310436       7.38237       11.3808             0        7.1268       1.10448             0          21.7      0.637903             0       7.11886             0             0      0.195337   5.59568e-16       0.15071        102282        103148        251057   1.02523e-15
     0.027027       287.838       288.639      0.314884       7.30737       11.1139             0       7.00891       1.15639             0       22.2524      0.865903             0        6.9924             0             0      0.194709    5.6251e-16       0.15344        102281        103148        251194   1.03062e-15
    0.0275275       287.851       288.641      0.313957       7.14181        10.889             0       6.90347       1.21122             0       23.0368      0.917382             0       7.00391             0             0      0.194182    5.6426e-16      0.155731        102282        103148        251420   1.03383e-15
     0.028028       287.864       288.643      0.312663       6.96935       10.6676             0       6.80035       1.26563             0       23.8032      0.964938             0       7.02246             0             0      0.193649   5.66182e-16      0.158049        102282        103147        251650   1.03735e-15
    0.0285285       287.889       288.639      0.305191       6.68038       10.5072             0        6.7365       1.31281             0       24.2647      0.946362             0       7.15943             0             0       0.19301   5.70981e-16      0.160828        102282        103147        251949   1.04614e-15
     0.029029       287.915       288.636      0.297542       6.39111       10.3437             0       6.67601       1.35914             0       24.6804      0.931231             0       7.30169             0             0      0.192364   5.76533e-16      0.163636        102282        103146        252253   1.05632e-15
    0.0295295       287.952       288.629      0.287037       6.09696       10.1315             0       6.67033       1.39185             0        24.351      0.972057             0       7.52975             0             0      0.191606   5.94324e-16      0.166931        102282        103146        252651   1.08891e-15
      0.03003       287.989       288.623      0.276527       5.80675       9.91403             0       6.66762       1.42363             0       23.9715       1.01759             0       7.76118             0             0      0.190852   6.14532e-16      0.170208        102282        103145        253055   1.12594e-15
    0.0305305       288.028       288.617      0.265951       5.57836       9.61463             0       6.71139        1.4409             0       22.8069       1.13692             0       8.04551             0             0      0.190165   6.72605e-16      0.173199        102282        103144        253533   1.23234e-15
     0.031031       288.067       288.612       0.25529       5.35463       9.31218             0       6.75679       1.45735             0        21.611       1.25602             0       8.33144             0             0      0.189495   7.32113e-16      0.176109        102282        103143        254018   1.34137e-15
    0.0315315       288.095        288.61      0.243358       5.20145       8.96356             0       6.82671       1.46155             0       19.9411       1.37165             0       8.64146             0             0      0.189107   8.13334e-16      0.177795        102282        103142        254594   1.49018e-15
     0.032032       288.121       288.609      0.231347       5.05715       8.61005             0       6.89701       1.46519             0       18.2665       1.48085             0        8.9516             0             0      0.188747   8.92981e-16      0.179363        102282        103141        255174   1.63611e-15
    0.0325325       288.126        288.61      0.218185       5.04267       8.18492             0       6.97293       1.46066             0       16.5224       1.49625             0       9.26327             0             0      0.188785   9.49628e-16      0.179198        102282        103141        255825    1.7399e-15
     0.033033        288.13       288.611      0.205123       5.03293       7.75866             0       7.04868       1.45588             0       14.7938       1.50275             0       9.57429             0             0       0.18886   1.00555e-15      0.178868        102282        103140        256474   1.84235e-15
    0.0335335        288.11       288.613       0.19346       5.09024       7.31634             0       7.12213        1.4477             0       13.2838       1.38346             0       9.87614             0             0      0.189473   1.05114e-15      0.176207        102282        103140        257098   1.92589e-15
     0.034034       288.087       288.615      0.181977       5.13552       6.88493             0       7.19543        1.4394             0       11.7969       1.25629             0       10.1767             0             0      0.190132   1.09732e-15      0.173338        102282        103139        257722    2.0105e-15
    0.0345345        288.04       288.618      0.172954       5.01606       6.60306             0       7.26683       1.42942             0       10.6265       1.02105             0       10.4594             0             0      0.191445   1.15143e-15      0.167629        102282        103139        258356   2.10963e-15
     0.035035       287.993        288.62      0.164077       4.88137       6.33392             0       7.33854       1.41936             0       9.47408      0.777849             0       10.7388             0             0      0.192743   1.20432e-15      0.161985        102281        103138        258990   2.20653e-15
    0.0355355        287.95       288.621      0.157127        4.5445       6.23386             0       7.41437       1.40813             0       8.55973      0.428808             0       10.9734             0             0      0.193845   1.24108e-15      0.157193        102281        103138        259621   2.27388e-15
     0.036036       287.909       288.622      0.150272        4.2095       6.13408             0       7.49042       1.39674             0       7.66336     0.0712195             0       11.1998             0             0      0.194881   1.27574e-15       0.15269        102281        103138        260245    2.3374e-15
    0.0365365       287.892       288.624      0.144648        3.8986       6.03788             0       7.56942       1.38335             0        6.9986     -0.396528             0       11.3196             0             0      0.195062   1.28343e-15      0.151903        102281        103138        260782   2.35149e-15
     0.037037       287.877       288.625      0.139092       3.60121       5.93463             0       7.64751       1.36955             0       6.36564     -0.870452             0        11.427             0             0      0.195181   1.29032e-15      0.151389        102281        103138        261317   2.36411e-15
    0.0375375       287.878       288.627      0.134385       3.47302       5.74315             0       7.71432       1.35044             0       6.13081      -1.42167             0        11.378             0             0      0.194516   1.28719e-15      0.154279        102281        103138        261817   2.35838e-15
     0.038038        287.88       288.628      0.129723       3.35733       5.54684             0       7.77944       1.33091             0        5.9398      -1.97457             0       11.3154             0             0      0.193832   1.28454e-15       0.15725        102281        103139        262312   2.35352e-15
    0.0385385       287.887        288.63      0.125601       3.39372       5.29164             0       7.82409       1.30619             0        6.2815      -2.54788             0       11.0868             0             0      0.192924   1.28771e-15      0.161201        102281        103139        262753   2.35932e-15
     0.039039       287.896       288.632      0.121499       3.43933       5.03497             0       7.86673       1.28107             0        6.6749      -3.11766             0       10.8441             0             0      0.192002   1.29492e-15       0.16521        102281        103140        263184   2.37254e-15
    0.0395395       287.914       288.634       0.11763       3.59403       4.76088             0       7.88565       1.25119             0        7.6793      -3.64557             0       10.4358             0             0      0.190924   1.35004e-15      0.169894        102280        103141        263498   2.47353e-15
      0.04004       287.934       288.636      0.113795       3.74104       4.48886             0       7.90222       1.22084             0       8.74075      -4.16389             0       10.0151             0             0      0.189821   1.40902e-15      0.174691        102280        103142        263807   2.58159e-15
    0.0405405       287.966       288.637      0.110357       3.79974       4.24064             0       7.89182       1.18512             0       10.4582      -4.57185             0        9.4513             0             0      0.188418   1.51239e-15      0.180792        102279        103143        264059   2.77099e-15
     0.041041       287.999       288.637       0.10695       3.82454       3.99556             0       7.87864       1.14886             0       12.2245      -4.96474             0       8.87821             0             0      0.187023   1.61588e-15      0.186856        102279        103144        264304    2.9606e-15
    0.0415415       288.038       288.635      0.103891       3.46987       3.78566             0       7.83445       1.10648             0        14.538      -5.18903             0       8.20059             0             0      0.185723   1.72068e-15      0.192509        102278        103146        264482    3.1526e-15
     0.042042       288.079       288.632      0.100906       3.06956       3.57762             0       7.78713       1.06339             0       16.8743      -5.39612             0       7.51879             0             0      0.184418   1.82549e-15      0.198185        102277        103147        264647   3.34463e-15
    0.0425425       288.134       288.627     0.0987363       2.17159       3.38996             0       7.70566       1.01246             0       19.4596      -5.41558             0       6.79149             0             0      0.183056    1.9305e-15      0.204105        102276        103148        264670   3.53703e-15
     0.043043       288.188       288.622     0.0967066       1.23522       3.20198             0       7.62194      0.960837             0       22.0372      -5.41961             0       6.06626             0             0      0.181727   2.03249e-15      0.209882        102275        103150        264691    3.7239e-15
    0.0435435        288.23       288.616     0.0961686     -0.109243       3.01057             0       7.51439      0.901876             0        24.533      -5.25977             0       5.36314             0             0       0.18075   2.10235e-15      0.214132        102274        103151        264676    3.8519e-15
     0.044044        288.27       288.609     0.0957657       -1.4687       2.81737             0       7.40622      0.842238             0       26.9988      -5.09049             0       4.66545             0             0      0.179838   2.16761e-15      0.218095        102273        103152        264662   3.97147e-15
    0.0445445       288.278       288.602     0.0967619      -2.98356       2.60552             0       7.29152      0.775584             0       29.1539      -4.82341             0       4.02416             0             0      0.179612   2.18518e-15      0.219078        102273        103154        264654   4.00366e-15
     0.045045       288.284       288.596     0.0978669      -4.48591       2.39205             0       7.17648      0.708235             0       31.2668      -4.55165             0        3.3892             0             0      0.179422   2.20104e-15      0.219905        102272        103155        264638   4.03272e-15
    0.0455455       288.271        288.59      0.100072      -5.86173       2.16217             0       7.05788      0.633863             0       32.9526      -4.23263             0       2.81836             0             0      0.179595   2.19963e-15      0.219151        102272        103156        264543   4.03013e-15