#           y             T         TMean   TPrime2Mean           U_x           U_y           U_z       UMean_x       UMean_y       UMean_z UPrime2Mea... UPrime2Mea... UPrime2Mea... UPrime2Mea... UPrime2Mea... UPrime2Mea...            O2           H2O          C3H8             p         pMean   pPrime2Mean           CO2
            0        288.26       288.007      0.061306       22.6112             0             0       22.7378             0             0       5.95864             0             0             0             0             0          0.23    1.8258e-14   9.28764e-07        103325        103113        279758    3.3452e-14
  0.000500501       288.258       288.007     0.0613175       22.5941     -0.320516             0       22.7401   0.000611685             0        5.9777      0.126576             0     0.0504161             0             0      0.229999   2.07505e-13   5.51342e-06        103321        103113        279321   3.80187e-13
     0.001001       288.256       288.007     0.0613287       22.5767     -0.640951             0       22.7424    0.00123046             0       5.99693      0.253156             0       0.10094             0             0      0.229998   4.10533e-13   1.02127e-05        103317        103113        278882   7.52173e-13
    0.0015015       288.255       288.007      0.061206       22.4835     -0.920779             0       22.7384    0.00538749             0       6.09695      0.381904             0      0.205314             0             0      0.229983   7.49067e-12   7.21144e-05        103309        103113        277602   1.37243e-11
     0.002002       288.254       288.007     0.0610829       22.3902      -1.20055             0       22.7345    0.00952208             0        6.1973      0.510798             0       0.31023             0             0      0.229969   1.48812e-11   0.000135878        103301        103113        276319   2.72651e-11
    0.0025025       288.288       288.007     0.0608791        22.261      -1.46682             0        22.736    0.00806678             0       6.37832      0.676274             0      0.550183             0             0      0.229848   9.95499e-11   0.000663196        103293        103113        274420   1.82394e-10
     0.003003       288.324       288.007     0.0606955       22.1312      -1.73205             0       22.7374    0.00669146             0       6.56095      0.841742             0      0.790907             0             0      0.229723   1.90103e-10    0.00120439        103286        103113        272517   3.48303e-10
    0.0035035       288.658       288.012     0.0638633       21.9151      -1.82465             0       22.7279     0.0185644             0       7.01048       1.00588             0       1.15931             0             0       0.22907   1.25542e-09    0.00404437        103281        103113        269979   2.30016e-09
     0.004004       289.005       288.016     0.0687269       21.6998      -1.91684             0       22.7186     0.0303334             0        7.4626       1.17149             0       1.53193             0             0      0.228406   2.37513e-09    0.00693104        103276        103112        267440   4.35169e-09
    0.0045045       290.795       288.057      0.283876       21.5844      -1.95747             0       22.7232     0.0292125             0       8.23542       1.51915             0        2.4268             0             0      0.226411   1.02402e-08     0.0156072        103268        103111        264678   1.87619e-08
   0.00500501       292.631       288.099      0.544396       21.4692      -1.99587             0       22.7274     0.0283335             0       9.01686        1.8659             0        3.3294             0             0      0.224398   1.84049e-08     0.0243635        103260        103110        261916   3.37212e-08
   0.00550551         299.1       288.324       5.29666       21.3806      -1.81323             0       22.6875     0.0513887             0       10.6506       2.12314             0       4.99753             0             0      0.220561   5.62403e-08     0.0410538        103244        103109        259119   1.03043e-07
   0.00600601       305.669       288.556       10.4873       21.2975      -1.63268             0       22.6477     0.0738257             0       12.2797       2.38744             0       6.69539             0             0      0.216725   9.61526e-08     0.0577357        103228        103107        256329   1.76169e-07
   0.00650651       320.483       289.268       51.7713       21.6656      -1.62526             0       22.6167     0.0453574             0       13.5265       3.23341             0       10.8423             0             0      0.213047    3.0707e-07     0.0737341        103207        103103        254132   5.62609e-07
   0.00700701       335.654       289.995       95.7024       22.0271       -1.6139             0        22.586     0.0178276             0       14.7439       4.07349             0       15.0095             0             0      0.209367   5.64626e-07     0.0897415        103186        103099        251938    1.0345e-06
   0.00750751       375.888       291.735       326.066       21.9312      -1.32552             0       22.5699     0.0563951             0       13.8974       4.49855             0       20.6013             0             0      0.205531   4.10689e-06      0.106386        103162        103092        249939   7.52458e-06
   0.00800801       417.275       293.528       573.276       21.8357      -1.04128             0       22.5436     0.0933446             0         13.04       4.88381             0       26.2022             0             0      0.201709   8.80655e-06      0.122952        103138        103086        247933   1.61352e-05
   0.00850851       529.539       298.593       1856.48       21.7714      -1.01248             0       21.8856     0.0307895             0       11.5153       2.82143             0       32.3632             0             0      0.198821   8.46863e-05      0.134718        103125        103078        245498   0.000155161
   0.00900901       641.006       303.648       3139.59       21.7365     -0.991337             0        21.227    -0.0310689             0       9.99847      0.746407             0       38.4838             0             0      0.195988   0.000159579      0.146256        103113        103071        243040   0.000292379
   0.00950951        709.06       308.075       4417.49       23.3002      -1.38844             0       20.5298    -0.0549159             0        8.9029       -2.0187             0       42.3963             0             0      0.196148   0.000180635      0.145337        103105        103067        239319   0.000330957
      0.01001       775.464       312.437       5679.25       24.8388      -1.76033             0       19.8266    -0.0750985             0       7.83619      -4.74987             0       46.2011             0             0      0.196212   0.000200241      0.144847        103098        103063        235576    0.00036688
    0.0105105       761.053       313.575       6149.88       25.1485     -0.896934             0       18.8279     0.0842739             0        8.1837      -5.81839             0       44.7215             0             0       0.19161   0.000148807      0.165386        103081        103069        230781   0.000272642
     0.011011       746.696       314.704       6619.23       25.4299    -0.0354733             0       17.8141      0.242683             0       8.56027      -6.85093             0       43.1614             0             0      0.186792   9.82175e-05      0.186853        103065        103074        225981   0.000179953
    0.0115115       734.743       315.427       7031.23       24.4499      0.739867             0       16.1249      0.358287             0       10.2288      -6.28394             0       38.0258             0             0      0.172398    8.5216e-05      0.249574        103050        103083        220934   0.000156132
     0.012012       722.759       316.156       7448.34        23.476       1.49487             0       14.4374       0.47155             0       11.8668      -5.69403             0       32.8566             0             0      0.157875   7.24511e-05      0.312852        103036        103092        215900   0.000132744
    0.0125125       709.528       317.095       8073.25       22.7461       1.42292             0       12.8174      0.489644             0        12.264      -4.17169             0        26.319             0             0      0.138112     6.931e-05      0.398829        103018        103099        211372   0.000126989
     0.013013       696.442       318.005       8680.32       22.0105       1.35926             0       11.2213      0.505403             0       12.6162      -2.65659             0       19.8507             0             0      0.118348   6.69056e-05      0.484803        103001        103106        206877   0.000122584
    0.0135135       688.779       317.867       8619.21       21.0597       1.60614             0       10.5198      0.433682             0       11.2852      -1.41265             0       15.9788             0             0     0.0985394   9.20983e-05      0.570671        102979        103109        203630   0.000168741
     0.014014       680.796       317.673       8525.86       20.1197       1.85231             0       9.84353      0.364457             0       9.95576     -0.197184             0       12.1675             0             0     0.0788562   0.000116126      0.656006        102958        103113        200407   0.000212765
    0.0145145       661.677       315.537       7313.24       19.5596       2.07427             0       10.0452      0.381886             0       8.68523     0.0303281             0       10.4624             0             0      0.063522   9.97092e-05      0.722829        102942        103114        198015   0.000182686
     0.015015       642.425       313.414       6110.55       19.0316       2.29557             0       10.2452       0.39829             0       7.45271      0.255314             0       8.79179             0             0     0.0484013   8.27005e-05       0.78873        102926        103116        195646   0.000151523
    0.0155155       618.871        311.73       5228.99       19.5435       2.49541             0       10.3928      0.381537             0       7.44908      0.398631             0       8.23559             0             0     0.0401814   4.65531e-05      0.824835        102903        103116        194034    8.5294e-05
     0.016016       595.019           310       4345.69       20.0154       2.70746             0        10.555      0.362219             0       7.49582      0.508681             0       7.71457             0             0     0.0322364   1.14168e-05      0.859735        102881        103115        192440   2.09177e-05
    0.0165165       562.141       306.886       3409.88       19.2791       3.28849             0        11.158      0.265278             0       9.06603     -0.387592             0       8.25802             0             0     0.0326061   6.86692e-06      0.858175        102859        103115        191371   1.25815e-05
     0.017017       528.865       303.726       2473.54       18.5188       3.85657             0       11.8239      0.163295             0       10.6568      -1.30869             0       8.79266             0             0      0.033373   2.45675e-06      0.854888        102837        103114        190307   4.50123e-06
    0.0175175       484.262       299.241       1522.53       17.0748       4.05636             0       14.2752    -0.0819783             0       12.8305      -2.93507             0       9.07677             0             0     0.0454229   2.01552e-06      0.802507        102815        103114        189362   3.69281e-06
     0.018018       439.806       294.829       596.033       15.7095       4.25227             0       16.7264     -0.319002             0        14.958      -4.51978             0       9.36672             0             0     0.0579677   1.57126e-06      0.747974        102794        103114        188415   2.87884e-06
    0.0185185       399.261       292.361       326.068       16.4507       4.34443             0       19.1754     -0.335131             0       15.8493      -4.98863             0       9.81293             0             0     0.0837622   1.04577e-06      0.635823        102764        103113        187411   1.91605e-06
     0.019019       359.288       289.958       65.1741       17.2441       4.43104             0        21.561     -0.348831             0       16.6916      -5.42614             0         10.24             0             0       0.10968   5.31249e-07      0.523135        102735        103112        186434   9.73348e-07
    0.0195195       333.804       289.171       33.9051       19.3603       4.37699             0       22.3411     -0.301063             0       16.2934      -5.07026             0       10.1812             0             0      0.138722   2.94198e-07      0.396857        102709        103113        186162   5.39026e-07
      0.02002       308.999       288.409       3.81306       21.4528       4.31919             0       23.1022     -0.254644             0       15.8926      -4.71492             0       10.1162             0             0      0.167373   6.54109e-08       0.27228        102684        103114        185905   1.19845e-07
    0.0205205       300.507       288.231       1.97029       22.9773       4.17107             0       23.4108     -0.240594             0       15.4312      -4.37244             0       9.89849             0             0      0.186634   3.49443e-08      0.188536        102667        103113        186003   6.40244e-08
     0.021021       292.293        288.06      0.201801       24.4513       4.02518             0       23.7032     -0.222715             0       14.9788       -4.0167             0       9.72341             0             0      0.205459   5.64461e-09      0.106687        102650        103113        186095    1.0342e-08
    0.0215215        290.43       288.033      0.127578       24.7741       3.93039             0       23.6285     -0.117502             0       14.7328       -3.3584             0       10.5201             0             0      0.214341   2.96474e-09     0.0680719        102643        103112        186069   5.43196e-09
     0.022022       288.636       288.008     0.0564334       25.0741       3.84278             0       23.5311    -0.0118793             0       14.5089      -2.65346             0       11.3483             0             0      0.222954   3.94437e-10     0.0306275        102635        103110        186054   7.22682e-10
    0.0225225       288.361       288.025     0.0521774       24.8773       3.91139             0       22.9386      0.102658             0       14.7682     -0.935075             0       12.8621             0             0      0.225715   2.04646e-10     0.0186258        102630        103108        186281   3.74949e-10
     0.023023       288.097       288.043     0.0480598       24.6747       3.98953             0       22.2951      0.223674             0       15.1276       0.84575             0       14.3865             0             0      0.228366   2.30768e-11    0.00710289        102625        103105        186500    4.2281e-11
    0.0235235       288.079       288.084      0.046814       24.3507       4.26541             0       20.5926      0.479052             0       17.5659       3.92158             0       16.1305             0             0      0.228732   1.20309e-11    0.00551276        102619        103101        186554   2.20429e-11
     0.024024       288.063       288.127      0.045887       23.9423        4.5412             0       18.8228      0.728598             0        20.288       6.93181             0       17.9187             0             0      0.229063   1.48381e-12    0.00407264        102612        103097        186632   2.71862e-12
    0.0245245       288.076       288.182     0.0512855         21.86       4.81524             0       15.7172      0.862468             0       28.6384       8.64103             0       20.5824             0             0       0.22871   8.28559e-13    0.00560783        102602        103092        187198   1.51807e-12
     0.025025       288.089       288.237     0.0569424       19.6527       5.08686             0       12.6186      0.981283             0       37.2366       10.1626             0       23.3098             0             0       0.22834   2.01961e-13    0.00721677        102592        103087        187765    3.7003e-13
    0.0255255       288.095       288.285     0.0675098       15.0691        5.3126             0       9.65463      0.814058             0       50.5446       8.11792             0       27.2471             0             0      0.227648   1.19814e-13     0.0102272        102578        103080        188350   2.19522e-13
     0.026026       288.101       288.331      0.077965        10.473       5.53749             0        6.7493      0.639986             0       63.6224       6.01348             0       31.1775             0             0       0.22694   4.16067e-14     0.0133045        102564        103073        188928   7.62312e-14
    0.0265265       288.096       288.358     0.0863754       5.64909       5.74703             0       4.91315      0.341075             0       72.5034       2.81892             0       34.9842             0             0      0.225952   3.52043e-14     0.0176025        102552        103066        189383   6.45008e-14
     0.027027       288.092       288.384     0.0945187      0.927132       5.93674             0        3.1124     0.0381159             0       80.8526     -0.357175             0       38.7398             0             0      0.224908   3.03783e-14     0.0221403        102540        103058        189858   5.56587e-14
    0.0275275       288.106       288.401     0.0979843      -2.00927       5.77885             0       1.93162     -0.335757             0       79.8864      -3.20985             0       41.5999             0             0      0.222898   5.31683e-14     0.0308819        102536        103051        190652   9.74143e-14
     0.028028        288.12       288.418      0.101299       -4.8228       5.60818             0      0.771718     -0.710574             0       78.5793       -6.0389             0       44.3692             0             0      0.220851   7.60747e-14     0.0397793        102532        103043        191466   1.39383e-13
    0.0285285       288.153        288.43      0.102076      -5.56515        5.2222             0    -0.0364358      -1.10129             0       71.5258      -8.46963             0       45.6056             0             0        0.2182   1.00942e-13     0.0513051        102533        103036        192603   1.84944e-13
     0.029029       288.186       288.441      0.102771      -6.24625       4.83794             0     -0.835378      -1.48912             0       64.3575      -10.8199             0       46.7482             0             0      0.215615   1.24126e-13     0.0625444        102535        103030        193765   2.27422e-13
    0.0295295       288.211       288.448      0.102132      -5.93241       4.48156             0      -1.48473      -1.82986             0       55.3241      -11.8635             0       46.3659             0             0      0.214101   1.19984e-13     0.0691296        102537        103025        195342   2.19832e-13
      0.03003       288.236       288.455      0.101439      -5.61666       4.12926             0      -2.12689      -2.16684             0       46.3471      -12.8107             0        45.917             0             0      0.212627   1.14684e-13     0.0755384        102540        103020        196939   2.10123e-13
    0.0305305       288.261       288.461     0.0999114      -5.27072       3.84088             0      -2.65653       -2.4447             0       38.2524      -12.2471             0        44.425             0             0      0.211788   9.12536e-14     0.0791824        102541        103018        198847   1.67194e-13
     0.031031       288.287       288.467      0.098411      -4.94853       3.55558             0      -3.17901      -2.71688             0         30.39      -11.6061             0       42.8882             0             0      0.210938   6.79796e-14     0.0828782        102542        103016        200779   1.24551e-13
    0.0315315       288.322        288.47     0.0973297      -4.98552       3.31669             0      -3.59305      -2.90309             0        26.044      -9.79404             0       40.6742             0             0      0.209908   4.70744e-14     0.0873577        102538        103016        203088    8.6249e-14
     0.032032       288.356       288.474     0.0963164      -5.02198       3.07984             0      -3.99624      -3.08406             0       21.9476      -7.96342             0       38.4395             0             0      0.208921   2.68864e-14     0.0916506        102534        103017        205431   4.92609e-14
    0.0325325       288.378       288.475     0.0962954      -5.05064       2.87295             0       -4.2407      -3.18847             0       21.5023      -5.86185             0       35.9012             0             0      0.208561   1.71888e-14     0.0932149        102524        103019        208256    3.1493e-14
     0.033033       288.397       288.477     0.0963134      -5.06821       2.66655             0      -4.47323      -3.28819             0       21.1863      -3.78811             0       33.3576             0             0      0.208279   7.95339e-15     0.0944372        102514        103022        211138   1.45721e-14
    0.0335335        288.39       288.476     0.0968827      -4.92893       2.46703             0      -4.53685       -3.3216             0       22.6989      -2.10839             0       30.7391             0             0      0.209111   5.26033e-15     0.0908208        102499        103026        214821   9.63791e-15
     0.034034       288.382       288.476     0.0974342      -4.78943       2.27082             0      -4.59021      -3.35202             0       24.2142     -0.464507             0       28.1341             0             0      0.209964   2.70431e-15      0.087109        102483        103030        218541   4.95479e-15
    0.0345345       288.354       288.477     0.0977408      -4.64701       2.12005             0      -4.50291      -3.34152             0       25.7646      0.688123             0       25.7157             0             0      0.211118   2.02633e-15     0.0820914        102463        103034        222765   3.71261e-15
     0.035035       288.326       288.477     0.0979611      -4.50583       1.97392             0      -4.40873      -3.32827             0       27.2467       1.80717             0       23.3166             0             0      0.212272   1.38927e-15      0.077077        102444        103038        227004    2.5454e-15
    0.0355355       288.279        288.48     0.0970348      -4.38113       1.88952             0      -4.22325      -3.27845             0       27.8224       2.48005             0       21.1736             0             0      0.213415    1.2959e-15     0.0721061        102422        103042        231436   2.37434e-15
     0.036036       288.233       288.483     0.0959882      -4.24453       1.81204             0      -4.03207       -3.2257             0       28.2962        3.1107             0       19.0525             0             0      0.214558   1.20811e-15     0.0671393        102400        103046        235845   2.21348e-15
    0.0365365       288.183        288.49      0.093391      -3.95467       1.82372             0      -3.76755      -3.13535             0       27.4586        3.1972             0       17.2131             0             0      0.215688   1.19209e-15     0.0622256        102377        103048        239955   2.18414e-15
     0.037037       288.135       288.496     0.0908064      -3.65177       1.84269             0      -3.49915      -3.04176             0       26.5372       3.24604             0       15.4018             0             0      0.216789   1.17696e-15     0.0574391        102354        103051        244028   2.15642e-15
    0.0375375       288.099       288.504     0.0883814      -3.18588       1.95275             0      -3.18224      -2.90769             0       24.5666       2.82361             0       13.9416             0             0      0.217524   1.17292e-15     0.0542453        102329        103053        247638     2.149e-15
     0.038038       288.065       288.512     0.0860423      -2.70721       2.06717             0      -2.86251      -2.77134             0       22.5844       2.39047             0       12.5131             0             0      0.218235   1.16914e-15      0.051153        102305        103055        251201   2.14209e-15
    0.0385385       288.042        288.52     0.0847495      -2.07313        2.2346             0      -2.50844      -2.60741             0       20.4593       1.82727             0       11.4701             0             0      0.218662    1.1687e-15      0.049296        102282        103056        254197   2.14127e-15
     0.039039       288.019       288.527     0.0835194      -1.42835        2.4044             0       -2.1531      -2.44237             0       18.3807       1.27254             0       10.4518             0             0       0.21907   1.16847e-15     0.0475212        102258        103057        257154   2.14085e-15
    0.0395395       288.009       288.533     0.0830303     -0.657136       2.60219             0      -1.78261      -2.26429             0       16.8509      0.817907             0       9.72429             0             0      0.219255   1.17076e-15     0.0467182        102237        103058        259641   2.14505e-15
      0.04004       287.999       288.538      0.082623      0.125583       2.79632             0      -1.41092      -2.08636             0       15.3705       0.37317             0       9.00711             0             0      0.219426   1.17316e-15     0.0459743        102217        103059        262086   2.14944e-15
    0.0405405       287.999       288.541     0.0831561       1.04065       2.94817             0      -1.02543      -1.91003             0       14.4585     0.0422103             0       8.40888             0             0       0.21944   1.17672e-15     0.0459107        102201        103059        264038   2.15597e-15
     0.041041           288       288.545     0.0837126       1.95723       3.09735             0     -0.638136       -1.7342             0       13.5672     -0.279718             0       7.81339             0             0      0.219435   1.18048e-15     0.0459348        102186        103060        265955   2.16286e-15
    0.0415415       288.006       288.548     0.0845299       2.89086       3.21646             0     -0.230749      -1.56387             0        12.907     -0.500545             0       7.24859             0             0      0.219203   1.18643e-15     0.0469417        102177        103061        267487   2.17376e-15
     0.042042       288.012       288.552     0.0853289       3.82052       3.32799             0      0.178164      -1.39465             0       12.2674     -0.707935             0       6.68199             0             0      0.218926   1.19297e-15     0.0481489        102168        103062        268981   2.18575e-15
    0.0425425       288.025       288.556      0.085928       4.70691       3.35695             0      0.603713      -1.23742             0       11.8525     -0.768815             0       6.09562             0             0      0.218145   1.20601e-15     0.0515414        102164        103064        270046   2.20964e-15
     0.043043        288.04       288.561     0.0865075       5.58005       3.37799             0       1.02839       -1.0816             0       11.4872     -0.817842             0       5.50941             0             0      0.217269   1.22044e-15     0.0553546        102162        103065        271076   2.23608e-15
    0.0435435       288.075       288.564     0.0868793        6.3123       3.31482             0       1.44381      -0.94088             0        11.649     -0.740902             0       4.92481             0             0      0.215363   1.24962e-15     0.0636388        102162        103067        271729   2.28954e-15
     0.044044       288.111       288.568     0.0871837       7.03131        3.2443             0        1.8572     -0.801873             0       11.8657     -0.656438             0       4.34389             0             0      0.213437   1.27921e-15     0.0720119        102164        103069        272352   2.34374e-15
    0.0445445       288.157       288.571     0.0867894       7.61307       3.09754             0       2.24952     -0.680658             0       12.6516     -0.493991             0       3.80116             0             0      0.211299   1.31295e-15     0.0813067        102167        103071        272669   2.40557e-15
     0.045045       288.202       288.574     0.0862349       8.17622       2.94621             0       2.63691     -0.561774             0       13.4717     -0.331341             0       3.26378             0             0       0.20926   1.34535e-15     0.0901752        102169        103073        272973   2.46494e-15
    0.0455455       288.236       288.576     0.0840608       8.55133       2.74864             0       2.97458     -0.466462             0        14.637     -0.166651             0       2.78034             0             0      0.208211   1.36422e-15     0.0947329        102173        103075        273146   2.49951e-15