# PROC_ID PARCEL_ID CellI X Y Z p Ux Uy Uz T C3H8 CO2 H2O N2 O2 largest_pointer wherePositive largest_pointerWP
2.000000e+00 1.190000e+02 2.576000e+03 1.200340e-01 4.986170e-02 5.000000e-04 1.116100e+05 1.800960e+01 -8.333290e-01 0.000000e+00 3.322710e+02 1.743510e-01 4.180550e-02 2.281730e-02 6.249830e-01 1.360430e-01 6.000000e+00 0.000000e+00 0.000000e+00
2.000000e+00 1.570000e+02 2.575000e+03 1.194570e-01 4.981050e-02 5.000000e-04 1.116050e+05 1.824140e+01 -1.087790e+00 0.000000e+00 3.552430e+02 1.611530e-01 5.485410e-02 2.993920e-02 6.317880e-01 1.222660e-01 8.000000e+00 0.000000e+00 0.000000e+00
2.000000e+00 2.850000e+02 2.599000e+03 1.430470e-01 4.908390e-02 5.000000e-04 1.119590e+05 2.002150e+01 -6.489270e-01 0.000000e+00 4.407800e+02 2.437190e-01 5.011680e-02 2.735360e-02 5.693870e-01 1.094230e-01 6.000000e+00 0.000000e+00 0.000000e+00
2.000000e+00 5.060000e+02 2.587000e+03 1.316860e-01 4.962330e-02 5.000000e-04 1.121690e+05 1.734730e+01 4.097860e-01 0.000000e+00 3.378630e+02 2.539580e-01 1.216360e-02 6.638840e-03 5.713090e-01 1.559310e-01 8.000000e+00 0.000000e+00 0.000000e+00
2.000000e+00 2.660000e+02 2.576000e+03 1.200380e-01 4.971660e-02 5.000000e-04 1.116100e+05 1.800960e+01 -8.333290e-01 0.000000e+00 3.322710e+02 1.743510e-01 4.180550e-02 2.281730e-02 6.249830e-01 1.360430e-01 6.000000e+00 0.000000e+00 0.000000e+00
2.000000e+00 2.750000e+02 2.537000e+03 1.336770e-01 4.810850e-02 5.000000e-04 1.120270e+05 2.207190e+01 8.576430e-01 0.000000e+00 4.052630e+02 2.529240e-01 2.096240e-02 1.144120e-02 5.698350e-01 1.448370e-01 6.000000e+00 0.000000e+00 0.000000e+00
2.000000e+00 4.700000e+02 2.574000e+03 1.182550e-01 4.952180e-02 5.000000e-04 1.115760e+05 1.798930e+01 -2.141150e+00 0.000000e+00 4.002420e+02 1.469170e-01 7.242010e-02 3.952660e-02 6.382300e-01 1.029070e-01 6.000000e+00 0.000000e+00 0.000000e+00
2.000000e+00 1.550000e+02 2.534000e+03 1.302190e-01 4.849570e-02 5.000000e-04 1.121880e+05 2.177900e+01 -4.090440e-01 0.000000e+00 3.430320e+02 2.429950e-01 1.509000e-02 8.236060e-03 5.790010e-01 1.546790e-01 6.000000e+00 0.000000e+00 0.000000e+00
2.000000e+00 2.670000e+02 2.484000e+03 1.324150e-01 4.793550e-02 5.000000e-04 1.121250e+05 2.068110e+01 -3.284940e-02 0.000000e+00 5.081200e+02 2.332960e-01 4.022230e-02 2.195320e-02 5.799950e-01 1.245340e-01 9.000000e+00 0.000000e+00 0.000000e+00
2.000000e+00 4.690000e+02 2.578000e+03 1.226200e-01 4.951130e-02 5.000000e-04 1.115630e+05 1.727710e+01 8.177430e-02 0.000000e+00 3.177620e+02 1.976320e-01 2.682860e-02 1.464300e-02 6.109120e-01 1.499840e-01 6.000000e+00 0.000000e+00 0.000000e+00
2.000000e+00 1.980000e+02 2.490000e+03 1.386810e-01 4.713110e-02 5.000000e-04 1.120480e+05 2.473320e+01 -1.046540e+00 0.000000e+00 1.630430e+03 2.083990e-01 1.410390e-01 7.697870e-02 5.732230e-01 3.602560e-04 6.000000e+00 1.000000e+00 7.000000e+00
2.000000e+00 2.300000e+02 2.482000e+03 1.308720e-01 4.770060e-02 5.000000e-04 1.121230e+05 2.233390e+01 4.903400e-01 0.000000e+00 4.532290e+02 2.279910e-01 3.812150e-02 2.080660e-02 5.846250e-01 1.284560e-01 9.000000e+00 0.000000e+00 0.000000e+00
2.000000e+00 4.280000e+02 2.440000e+03 1.400840e-01 4.629300e-02 5.000000e-04 1.120310e+05 2.478820e+01 -1.406610e+00 0.000000e+00 1.534920e+03 1.870950e-01 1.451270e-01 7.920960e-02 5.885680e-01 7.566940e-07 6.000000e+00 1.000000e+00 7.000000e+00
2.000000e+00 4.680000e+02 2.580000e+03 1.246540e-01 4.933000e-02 5.000000e-04 1.117250e+05 1.722180e+01 5.240320e-01 0.000000e+00 3.147880e+02 2.178580e-01 1.760410e-02 9.608270e-03 5.977120e-01 1.572170e-01 6.000000e+00 0.000000e+00 0.000000e+00
2.000000e+00 4.670000e+02 2.581000e+03 1.251620e-01 4.926720e-02 5.000000e-04 1.118860e+05 1.744160e+01 8.432850e-01 0.000000e+00 3.148650e+02 2.228970e-01 1.547830e-02 8.448020e-03 5.943800e-01 1.587970e-01 9.000000e+00 0.000000e+00 0.000000e+00
2.000000e+00 4.710000e+02 2.576000e+03 1.203320e-01 4.944210e-02 5.000000e-04 1.116100e+05 1.800960e+01 -8.333290e-01 0.000000e+00 3.322710e+02 1.743510e-01 4.180550e-02 2.281730e-02 6.249830e-01 1.360430e-01 6.000000e+00 0.000000e+00 0.000000e+00
2.000000e+00 4.290000e+02 2.430000e+03 1.302100e-01 4.638860e-02 5.000000e-04 1.120860e+05 2.536900e+01 -3.336140e+00 0.000000e+00 1.549010e+03 1.796880e-01 1.457850e-01 7.956900e-02 5.941280e-01 8.293640e-04 6.000000e+00 1.000000e+00 7.000000e+00
2.000000e+00 4.720000e+02 2.575000e+03 1.197910e-01 4.909900e-02 5.000000e-04 1.116050e+05 1.824140e+01 -1.087790e+00 0.000000e+00 3.552430e+02 1.611530e-01 5.485410e-02 2.993920e-02 6.317880e-01 1.222660e-01 8.000000e+00 0.000000e+00 0.000000e+00
2.000000e+00 4.640000e+02 2.479000e+03 1.279710e-01 4.729150e-02 5.000000e-04 1.120750e+05 2.452400e+01 6.684400e-01 0.000000e+00 5.837310e+02 1.973820e-01 6.725830e-02 3.670930e-02 6.007030e-01 9.794800e-02 6.000000e+00 0.000000e+00 0.000000e+00
2.000000e+00 1.540000e+02 2.478000e+03 1.265070e-01 4.762470e-02 5.000000e-04 1.119260e+05 2.440800e+01 7.415210e-01 0.000000e+00 1.062750e+03 1.598690e-01 1.226690e-01 6.695240e-02 6.153370e-01 3.517160e-02 6.000000e+00 1.000000e+00 7.000000e+00
2.000000e+00 1.560000e+02 2.477000e+03 1.259980e-01 4.774040e-02 5.000000e-04 1.119300e+05 2.744600e+01 8.531580e-01 0.000000e+00 1.546550e+03 1.423790e-01 1.524760e-01 8.322060e-02 6.211400e-01 7.851500e-04 6.000000e+00 1.000000e+00 7.000000e+00
2.000000e+00 1.990000e+02 2.477000e+03 1.259790e-01 4.771710e-02 5.000000e-04 1.119300e+05 2.744600e+01 8.531580e-01 0.000000e+00 1.546550e+03 1.423790e-01 1.524760e-01 8.322060e-02 6.211400e-01 7.851500e-04 6.000000e+00 1.000000e+00 7.000000e+00
2.000000e+00 4.730000e+02 2.523000e+03 1.197750e-01 4.844840e-02 5.000000e-04 1.116630e+05 2.196650e+01 -1.242080e-01 0.000000e+00 1.064220e+03 1.238510e-01 1.214480e-01 6.628580e-02 6.433820e-01 4.503390e-02 6.000000e+00 1.000000e+00 7.000000e+00
2.000000e+00 5.430000e+02 2.477000e+03 1.256640e-01 4.780820e-02 5.000000e-04 1.119300e+05 2.744600e+01 8.531580e-01 0.000000e+00 1.546550e+03 1.423790e-01 1.524760e-01 8.322060e-02 6.211400e-01 7.851500e-04 6.000000e+00 1.000000e+00 7.000000e+00
2.000000e+00 3.140000e+02 2.477000e+03 1.252990e-01 4.738860e-02 5.000000e-04 1.119300e+05 2.744600e+01 8.531580e-01 0.000000e+00 1.546550e+03 1.423790e-01 1.524760e-01 8.322060e-02 6.211400e-01 7.851500e-04 6.000000e+00 1.000000e+00 7.000000e+00
2.000000e+00 5.440000e+02 2.375000e+03 1.279970e-01 4.572380e-02 5.000000e-04 1.119710e+05 3.884740e+01 -2.368350e+00 0.000000e+00 1.708020e+03 9.688710e-02 1.612050e-01 8.798510e-02 6.539220e-01 5.294770e-07 6.000000e+00 1.000000e+00 7.000000e+00
2.000000e+00 7.940000e+02 1.010000e+02 1.411000e-01 1.799080e-03 5.000000e-04 1.120270e+05 4.542460e+01 3.634240e-01 0.000000e+00 4.113650e+02 3.408070e-03 1.184910e-02 6.467170e-03 7.643280e-01 2.139480e-01 9.000000e+00 0.000000e+00 0.000000e+00
2.000000e+00 7.910000e+02 4.500000e+01 1.375710e-01 7.649090e-04 5.000000e-04 1.121080e+05 4.379380e+01 -1.030450e-01 0.000000e+00 3.117500e+02 1.966880e-03 2.948500e-03 1.609280e-03 7.677270e-01 2.257480e-01 9.000000e+00 0.000000e+00 0.000000e+00
2.000000e+00 7.930000e+02 9.700000e+01 1.379640e-01 1.023000e-03 5.000000e-04 1.120780e+05 4.519120e+01 1.536110e-01 0.000000e+00 4.013520e+02 3.077790e-03 9.504190e-03 5.187350e-03 7.651850e-01 2.170450e-01 9.000000e+00 0.000000e+00 0.000000e+00
2.000000e+00 7.920000e+02 4.500000e+01 1.376210e-01 8.169390e-04 5.000000e-04 1.121080e+05 4.379380e+01 -1.030450e-01 0.000000e+00 3.117500e+02 1.966880e-03 2.948500e-03 1.609280e-03 7.677270e-01 2.257480e-01 9.000000e+00 0.000000e+00 0.000000e+00
2.000000e+00 7.900000e+02 4.500000e+01 1.370490e-01 0.000000e+00 5.000000e-04 1.121080e+05 4.379380e+01 -1.030450e-01 0.000000e+00 3.117500e+02 1.966880e-03 2.948500e-03 1.609280e-03 7.677270e-01 2.257480e-01 9.000000e+00 0.000000e+00 0.000000e+00
2.000000e+00 4.740000e+02 2.521000e+03 1.176490e-01 4.892260e-02 5.000000e-04 1.115460e+05 2.512420e+01 1.952770e+00 0.000000e+00 1.839020e+03 9.479800e-02 1.610760e-01 8.791440e-02 6.555490e-01 6.629010e-04 6.000000e+00 1.000000e+00 7.000000e+00
2.000000e+00 2.860000e+02 2.521000e+03 1.171980e-01 4.894260e-02 5.000000e-04 1.115460e+05 2.512420e+01 1.952770e+00 0.000000e+00 1.839020e+03 9.479800e-02 1.610760e-01 8.791440e-02 6.555490e-01 6.629010e-04 6.000000e+00 1.000000e+00 7.000000e+00
2.000000e+00 8.340000e+02 1.480000e+02 1.366940e-01 2.998530e-03 5.000000e-04 1.120450e+05 4.770150e+01 6.256530e-02 0.000000e+00 5.991950e+02 3.392460e-03 3.112870e-02 1.698990e-02 7.593810e-01 1.891080e-01 6.000000e+00 0.000000e+00 0.000000e+00
2.000000e+00 8.330000e+02 1.460000e+02 1.344210e-01 2.657740e-03 5.000000e-04 1.120270e+05 4.744750e+01 7.885370e-02 0.000000e+00 5.801210e+02 3.754420e-03 3.130930e-02 1.708850e-02 7.590560e-01 1.887920e-01 6.000000e+00 0.000000e+00 0.000000e+00
2.000000e+00 8.320000e+02 1.440000e+02 1.321740e-01 2.311500e-03 5.000000e-04 1.119600e+05 4.732750e+01 1.780710e-01 0.000000e+00 5.555010e+02 4.402290e-03 3.095450e-02 1.689480e-02 7.586480e-01 1.891000e-01 6.000000e+00 0.000000e+00 0.000000e+00
2.000000e+00 8.300000e+02 3.600000e+01 1.282800e-01 7.128160e-04 5.000000e-04 1.118520e+05 4.434480e+01 -2.725020e-01 0.000000e+00 3.027850e+02 1.573660e-03 1.802800e-03 9.839590e-04 7.683250e-01 2.273150e-01 6.000000e+00 0.000000e+00 0.000000e+00
2.000000e+00 8.310000e+02 3.600000e+01 1.283710e-01 8.767640e-04 5.000000e-04 1.118520e+05 4.434480e+01 -2.725020e-01 0.000000e+00 3.027850e+02 1.573660e-03 1.802800e-03 9.839590e-04 7.683250e-01 2.273150e-01 6.000000e+00 0.000000e+00 0.000000e+00
2.000000e+00 8.290000e+02 3.600000e+01 1.281710e-01 6.489390e-04 5.000000e-04 1.118520e+05 4.434480e+01 -2.725020e-01 0.000000e+00 3.027850e+02 1.573660e-03 1.802800e-03 9.839590e-04 7.683250e-01 2.273150e-01 6.000000e+00 0.000000e+00 0.000000e+00
2.000000e+00 8.280000e+02 3.500000e+01 1.278650e-01 0.000000e+00 5.000000e-04 1.118280e+05 4.450020e+01 -2.506620e-01 0.000000e+00 3.006390e+02 1.711180e-03 1.870450e-03 1.020880e-03 7.682010e-01 2.271960e-01 8.000000e+00 0.000000e+00 0.000000e+00
2.000000e+00 6.580000e+02 7.790000e+02 1.438410e-01 1.436100e-02 5.000000e-04 1.120770e+05 7.067090e+01 -2.708660e-01 0.000000e+00 1.468770e+03 2.578160e-01 1.324920e-01 7.231360e-02 5.373780e-01 1.016460e-28 6.000000e+00 1.000000e+00 7.000000e+00
2.000000e+00 6.590000e+02 8.280000e+02 1.400010e-01 1.515790e-02 5.000000e-04 1.120190e+05 6.904150e+01 4.114820e-01 0.000000e+00 1.531070e+03 2.302420e-01 1.374080e-01 7.499680e-02 5.573530e-01 1.870180e-29 6.000000e+00 1.000000e+00 7.000000e+00
2.000000e+00 3.500000e+02 1.038000e+03 1.424410e-01 1.931310e-02 5.000000e-04 1.120370e+05 7.264810e+01 -2.277430e+00 0.000000e+00 1.882670e+03 7.489310e-02 1.651200e-01 9.012180e-02 6.698650e-01 2.060220e-42 6.000000e+00 1.000000e+00 7.000000e+00
2.000000e+00 6.600000e+02 8.230000e+02 1.352070e-01 1.598720e-02 5.000000e-04 1.119660e+05 6.716500e+01 1.037160e+00 0.000000e+00 1.394710e+03 3.158200e-01 1.221380e-01 6.666260e-02 4.953800e-01 3.754460e-28 6.000000e+00 1.000000e+00 7.000000e+00
2.000000e+00 9.100000e+02 3.090000e+02 1.410960e-01 5.538520e-03 5.000000e-04 1.120750e+05 7.520940e+01 9.764550e-01 0.000000e+00 1.900000e+03 4.938250e-05 1.695360e-01 9.253230e-02 7.263560e-01 1.152650e-02 1.000000e+01 0.000000e+00 0.000000e+00
2.000000e+00 8.730000e+02 1.350000e+02 1.230750e-01 2.639170e-03 5.000000e-04 1.116910e+05 5.007740e+01 -1.885050e-01 0.000000e+00 5.527940e+02 6.656570e-03 3.209210e-02 1.751570e-02 7.566200e-01 1.871160e-01 9.000000e+00 0.000000e+00 0.000000e+00
2.000000e+00 6.550000e+02 8.710000e+02 1.314670e-01 1.612890e-02 5.000000e-04 1.118900e+05 6.557120e+01 5.723540e-01 0.000000e+00 1.502600e+03 2.541300e-01 1.331410e-01 7.266790e-02 5.400610e-01 1.705460e-30 6.000000e+00 1.000000e+00 7.000000e+00
2.000000e+00 5.750000e+02 8.180000e+02 1.309180e-01 1.599170e-02 5.000000e-04 1.118660e+05 6.737110e+01 5.903250e-01 0.000000e+00 1.352350e+03 3.347920e-01 1.187490e-01 6.481290e-02 4.816460e-01 1.275860e-27 6.000000e+00 1.000000e+00 7.000000e+00
2.000000e+00 8.720000e+02 1.310000e+02 1.198510e-01 2.189150e-03 5.000000e-04 1.116700e+05 4.919830e+01 -9.884210e-01 0.000000e+00 5.621590e+02 6.356050e-03 3.547270e-02 1.936080e-02 7.559820e-01 1.828290e-01 6.000000e+00 0.000000e+00 0.000000e+00
2.000000e+00 3.890000e+02 1.082000e+03 1.341880e-01 2.039740e-02 5.000000e-04 1.118910e+05 7.248060e+01 -2.211910e+00 0.000000e+00 1.877810e+03 7.637040e-02 1.648560e-01 8.997780e-02 6.687960e-01 1.668800e-42 6.000000e+00 1.000000e+00 7.000000e+00
2.000000e+00 8.710000e+02 7.700000e+01 1.177730e-01 1.826060e-03 5.000000e-04 1.116230e+05 4.446890e+01 -1.548130e-02 0.000000e+00 3.626690e+02 5.845640e-03 1.054300e-02 5.754340e-03 7.627870e-01 2.150700e-01 8.000000e+00 0.000000e+00 0.000000e+00
2.000000e+00 8.670000e+02 2.400000e+01 1.163750e-01 6.774950e-04 5.000000e-04 1.116370e+05 4.347200e+01 -1.545530e-01 0.000000e+00 2.990750e+02 2.080620e-03 1.614330e-03 8.810950e-04 7.679830e-01 2.274410e-01 8.000000e+00 0.000000e+00 0.000000e+00
2.000000e+00 8.660000e+02 2.400000e+01 1.162770e-01 0.000000e+00 5.000000e-04 1.116370e+05 4.347200e+01 -1.545530e-01 0.000000e+00 2.990750e+02 2.080620e-03 1.614330e-03 8.810950e-04 7.679830e-01 2.274410e-01 8.000000e+00 0.000000e+00 0.000000e+00
2.000000e+00 8.680000e+02 2.400000e+01 1.163490e-01 7.669540e-04 5.000000e-04 1.116370e+05 4.347200e+01 -1.545530e-01 0.000000e+00 2.990750e+02 2.080620e-03 1.614330e-03 8.810950e-04 7.679830e-01 2.274410e-01 8.000000e+00 0.000000e+00 0.000000e+00
2.000000e+00 8.700000e+02 7.600000e+01 1.164940e-01 1.214180e-03 5.000000e-04 1.116180e+05 4.383540e+01 -4.501360e-02 0.000000e+00 3.549650e+02 5.450420e-03 9.300800e-03 5.076340e-03 7.634110e-01 2.167620e-01 8.000000e+00 0.000000e+00 0.000000e+00
2.000000e+00 8.690000e+02 2.400000e+01 1.161810e-01 8.872770e-04 5.000000e-04 1.116370e+05 4.347200e+01 -1.545530e-01 0.000000e+00 2.990750e+02 2.080620e-03 1.614330e-03 8.810950e-04 7.679830e-01 2.274410e-01 8.000000e+00 0.000000e+00 0.000000e+00
2.000000e+00 6.260000e+02 8.670000e+02 1.272560e-01 1.636240e-02 5.000000e-04 1.118250e+05 6.407630e+01 2.054320e-01 0.000000e+00 1.480340e+03 2.590970e-01 1.322530e-01 7.218320e-02 5.364670e-01 1.912150e-30 6.000000e+00 1.000000e+00 7.000000e+00
2.000000e+00 1.340000e+02 1.028000e+03 1.328730e-01 1.972010e-02 5.000000e-04 1.118900e+05 7.643430e+01 -2.144490e+00 0.000000e+00 1.841690e+03 9.498230e-02 1.615350e-01 8.816530e-02 6.553170e-01 2.322510e-39 6.000000e+00 1.000000e+00 7.000000e+00
2.000000e+00 6.610000e+02 8.120000e+02 1.246550e-01 1.593530e-02 5.000000e-04 1.118200e+05 6.597020e+01 -3.450880e-01 0.000000e+00 1.343910e+03 3.287010e-01 1.198310e-01 6.540350e-02 4.860640e-01 2.241470e-29 6.000000e+00 1.000000e+00 7.000000e+00
2.000000e+00 4.380000e+02 1.023000e+03 1.271710e-01 1.966010e-02 5.000000e-04 1.118330e+05 7.508070e+01 -1.688090e+00 0.000000e+00 1.816740e+03 1.055070e-01 1.596570e-01 8.714010e-02 6.476960e-01 2.597140e-39 6.000000e+00 1.000000e+00 7.000000e+00
2.000000e+00 9.870000e+02 3.480000e+02 1.288100e-01 6.075070e-03 5.000000e-04 1.117810e+05 8.471140e+01 1.922200e+00 0.000000e+00 1.900000e+03 1.482140e-02 1.757720e-01 9.593560e-02 7.133770e-01 9.452220e-05 6.000000e+00 1.000000e+00 7.000000e+00
2.000000e+00 9.090000e+02 1.240000e+02 1.126190e-01 2.697420e-03 5.000000e-04 1.114740e+05 4.532640e+01 6.105170e-01 0.000000e+00 5.092070e+02 4.940880e-03 3.676490e-02 2.006610e-02 7.567390e-01 1.814890e-01 9.000000e+00 0.000000e+00 0.000000e+00
2.000000e+00 5.070000e+02 1.119000e+03 1.194610e-01 2.191620e-02 5.000000e-04 1.118550e+05 6.647860e+01 -1.799500e+00 0.000000e+00 1.881370e+03 7.298080e-02 1.654600e-01 9.030750e-02 6.712510e-01 1.914370e-50 6.000000e+00 1.000000e+00 7.000000e+00
2.000000e+00 9.080000e+02 1.230000e+02 1.113840e-01 2.589350e-03 5.000000e-04 1.114360e+05 4.525160e+01 7.581190e-01 0.000000e+00 5.090620e+02 4.773010e-03 3.646300e-02 1.990140e-02 7.569460e-01 1.819170e-01 1.000000e+01 0.000000e+00 0.000000e+00
2.000000e+00 5.130000e+02 1.118000e+03 1.185860e-01 2.125150e-02 5.000000e-04 1.118500e+05 6.616750e+01 -1.895960e+00 0.000000e+00 1.880290e+03 7.317990e-02 1.654250e-01 9.028810e-02 6.711070e-01 1.556690e-50 6.000000e+00 1.000000e+00 7.000000e+00
2.000000e+00 9.070000e+02 6.700000e+01 1.074470e-01 1.229840e-03 5.000000e-04 1.113290e+05 4.350150e+01 -1.771490e-01 0.000000e+00 3.243560e+02 3.948360e-03 8.016290e-03 4.375260e-03 7.648980e-01 2.187620e-01 6.000000e+00 0.000000e+00 0.000000e+00
2.000000e+00 9.060000e+02 1.500000e+01 1.072190e-01 9.881980e-04 5.000000e-04 1.113220e+05 4.301360e+01 5.543190e-01 0.000000e+00 2.941240e+02 1.186140e-03 1.005120e-03 5.485890e-04 7.688280e-01 2.284320e-01 9.000000e+00 0.000000e+00 0.000000e+00
2.000000e+00 9.050000e+02 1.500000e+01 1.071630e-01 9.551500e-04 5.000000e-04 1.113220e+05 4.301360e+01 5.543190e-01 0.000000e+00 2.941240e+02 1.186140e-03 1.005120e-03 5.485890e-04 7.688280e-01 2.284320e-01 9.000000e+00 0.000000e+00 0.000000e+00
2.000000e+00 9.040000e+02 1.400000e+01 1.069940e-01 0.000000e+00 5.000000e-04 1.113250e+05 4.330930e+01 5.655490e-01 0.000000e+00 2.939880e+02 1.173140e-03 1.012690e-03 5.527240e-04 7.688360e-01 2.284250e-01 9.000000e+00 0.000000e+00 0.000000e+00
2.000000e+00 1.065000e+03 4.470000e+02 1.239970e-01 8.388710e-03 5.000000e-04 1.116860e+05 8.906650e+01 1.842330e+00 0.000000e+00 1.691120e+03 1.542350e-01 1.509720e-01 8.240000e-02 6.123920e-01 7.298060e-12 6.000000e+00 1.000000e+00 7.000000e+00
2.000000e+00 3.620000e+02 1.111000e+03 1.114270e-01 2.140520e-02 5.000000e-04 1.117390e+05 6.591800e+01 -1.123690e+00 0.000000e+00 1.874230e+03 7.493330e-02 1.651120e-01 9.011740e-02 6.698370e-01 1.692680e-49 6.000000e+00 1.000000e+00 7.000000e+00
2.000000e+00 3.990000e+02 1.110000e+03 1.105340e-01 2.139760e-02 5.000000e-04 1.117230e+05 6.576540e+01 -1.185690e+00 0.000000e+00 1.874920e+03 7.448280e-02 1.651920e-01 9.016140e-02 6.701630e-01 2.476590e-49 6.000000e+00 1.000000e+00 7.000000e+00
2.000000e+00 9.220000e+02 6.940000e+02 1.104330e-01 1.307580e-02 5.000000e-04 1.115840e+05 6.789880e+01 -3.305760e+00 0.000000e+00 1.269070e+03 3.723100e-01 1.120470e-01 6.115510e-02 4.544870e-01 1.264470e-26 6.000000e+00 1.000000e+00 7.000000e+00
2.000000e+00 8.790000e+02 5.880000e+02 1.085870e-01 1.191430e-02 5.000000e-04 1.114830e+05 6.979290e+01 -3.076590e+00 0.000000e+00 1.305140e+03 4.121960e-01 1.049470e-01 5.727970e-02 4.255780e-01 4.330620e-21 6.000000e+00 1.000000e+00 7.000000e+00
2.000000e+00 5.120000e+02 1.157000e+03 1.052710e-01 2.258810e-02 5.000000e-04 1.116300e+05 5.842710e+01 -2.354650e+00 0.000000e+00 1.895260e+03 6.333390e-02 1.671820e-01 9.124710e-02 6.782370e-01 3.998110e-52 6.000000e+00 1.000000e+00 7.000000e+00
2.000000e+00 4.270000e+02 1.364000e+03 1.048800e-01 2.602900e-02 5.000000e-04 1.116760e+05 5.885360e+01 -2.495670e+00 0.000000e+00 1.896670e+03 5.303230e-02 1.690190e-01 9.225010e-02 6.856980e-01 0.000000e+00 6.000000e+00 1.000000e+00 7.000000e+00
2.000000e+00 5.080000e+02 1.311000e+03 1.032300e-01 2.516670e-02 5.000000e-04 1.116380e+05 5.330880e+01 -1.975570e+00 0.000000e+00 1.897610e+03 5.384680e-02 1.688740e-01 9.217080e-02 6.851080e-01 2.852690e-60 6.000000e+00 1.000000e+00 7.000000e+00
2.000000e+00 5.780000e+02 8.450000e+02 1.051200e-01 1.646360e-02 5.000000e-04 1.115660e+05 6.215000e+01 -1.709150e+00 0.000000e+00 1.376070e+03 2.432990e-01 1.350620e-01 7.371640e-02 5.479230e-01 1.346320e-34 6.000000e+00 1.000000e+00 7.000000e+00
2.000000e+00 6.620000e+02 8.440000e+02 1.040780e-01 1.674780e-02 5.000000e-04 1.115490e+05 6.286220e+01 -1.773880e+00 0.000000e+00 1.373980e+03 2.431340e-01 1.350920e-01 7.373240e-02 5.480420e-01 1.610270e-34 6.000000e+00 1.000000e+00 7.000000e+00
2.000000e+00 5.090000e+02 1.362000e+03 1.025470e-01 2.601340e-02 5.000000e-04 1.116430e+05 5.809890e+01 -2.012190e+00 0.000000e+00 1.896910e+03 5.305490e-02 1.690150e-01 9.224790e-02 6.856820e-01 1.008140e-62 6.000000e+00 1.000000e+00 7.000000e+00
2.000000e+00 5.100000e+02 1.310000e+03 1.021130e-01 2.592640e-02 5.000000e-04 1.116250e+05 5.290740e+01 -1.541880e+00 0.000000e+00 1.897630e+03 5.390730e-02 1.688630e-01 9.216490e-02 6.850650e-01 4.279130e-60 6.000000e+00 1.000000e+00 7.000000e+00
2.000000e+00 8.460000e+02 7.910000e+02 1.036770e-01 1.533290e-02 5.000000e-04 1.115150e+05 6.723760e+01 -2.761160e+00 0.000000e+00 1.314360e+03 2.787300e-01 1.287380e-01 7.026480e-02 5.222680e-01 8.291080e-32 6.000000e+00 1.000000e+00 7.000000e+00
2.000000e+00 9.860000e+02 2.190000e+02 1.032860e-01 4.684160e-03 5.000000e-04 1.113630e+05 6.328450e+01 1.032530e+00 0.000000e+00 1.760440e+03 3.234420e-05 1.315220e-01 7.178440e-02 7.361480e-01 6.051280e-02 1.000000e+01 0.000000e+00 0.000000e+00
2.000000e+00 7.260000e+02 8.420000e+02 1.023470e-01 1.653660e-02 5.000000e-04 1.115190e+05 6.453550e+01 -1.864470e+00 0.000000e+00 1.368020e+03 2.437270e-01 1.349860e-01 7.367460e-02 5.476130e-01 3.129870e-34 6.000000e+00 1.000000e+00 7.000000e+00
2.000000e+00 9.490000e+02 1.110000e+02 9.964140e-02 2.477280e-03 5.000000e-04 1.115090e+05 4.808480e+01 -3.320450e-01 0.000000e+00 5.324430e+02 1.057180e-02 2.909360e-02 1.587920e-02 7.543760e-01 1.900790e-01 6.000000e+00 0.000000e+00 0.000000e+00
2.000000e+00 9.480000e+02 1.110000e+02 9.905930e-02 2.282280e-03 5.000000e-04 1.115090e+05 4.808480e+01 -3.320450e-01 0.000000e+00 5.324430e+02 1.057180e-02 2.909360e-02 1.587920e-02 7.543760e-01 1.900790e-01 6.000000e+00 0.000000e+00 0.000000e+00
2.000000e+00 9.500000e+02 1.110000e+02 9.923470e-02 2.674610e-03 5.000000e-04 1.115090e+05 4.808480e+01 -3.320450e-01 0.000000e+00 5.324430e+02 1.057180e-02 2.909360e-02 1.587920e-02 7.543760e-01 1.900790e-01 6.000000e+00 0.000000e+00 0.000000e+00
2.000000e+00 9.510000e+02 1.100000e+02 9.890040e-02 2.846490e-03 5.000000e-04 1.115620e+05 4.822790e+01 -6.073930e-01 0.000000e+00 5.326730e+02 1.083510e-02 2.868090e-02 1.565390e-02 7.542800e-01 1.905500e-01 0.000000e+00 0.000000e+00 0.000000e+00
2.000000e+00 9.470000e+02 1.100000e+02 9.821500e-02 2.008640e-03 5.000000e-04 1.115620e+05 4.822790e+01 -6.073930e-01 0.000000e+00 5.326730e+02 1.083510e-02 2.868090e-02 1.565390e-02 7.542800e-01 1.905500e-01 0.000000e+00 0.000000e+00 0.000000e+00
2.000000e+00 9.460000e+02 5.700000e+01 9.710950e-02 1.403730e-03 5.000000e-04 1.116760e+05 4.522360e+01 1.558180e-01 0.000000e+00 3.416620e+02 7.241280e-03 8.251340e-03 4.503550e-03 7.623020e-01 2.177020e-01 9.000000e+00 0.000000e+00 0.000000e+00
2.000000e+00 9.440000e+02 4.000000e+00 9.682330e-02 6.863570e-04 5.000000e-04 1.118150e+05 4.404740e+01 -6.040100e-01 0.000000e+00 2.950220e+02 1.765380e-03 1.059310e-03 5.781680e-04 7.683680e-01 2.282290e-01 6.000000e+00 0.000000e+00 0.000000e+00
2.000000e+00 9.430000e+02 4.000000e+00 9.677010e-02 5.906050e-04 5.000000e-04 1.118150e+05 4.404740e+01 -6.040100e-01 0.000000e+00 2.950220e+02 1.765380e-03 1.059310e-03 5.781680e-04 7.683680e-01 2.282290e-01 6.000000e+00 0.000000e+00 0.000000e+00
2.000000e+00 9.450000e+02 4.000000e+00 9.679300e-02 8.125530e-04 5.000000e-04 1.118150e+05 4.404740e+01 -6.040100e-01 0.000000e+00 2.950220e+02 1.765380e-03 1.059310e-03 5.781680e-04 7.683680e-01 2.282290e-01 6.000000e+00 0.000000e+00 0.000000e+00
2.000000e+00 6.160000e+02 8.900000e+02 9.898340e-02 1.729580e-02 5.000000e-04 1.115200e+05 6.429020e+01 -6.337460e-01 0.000000e+00 1.426850e+03 2.116620e-01 1.407090e-01 7.679820e-02 5.708310e-01 1.682170e-36 6.000000e+00 1.000000e+00 7.000000e+00
2.000000e+00 9.420000e+02 4.000000e+00 9.666740e-02 0.000000e+00 5.000000e-04 1.118150e+05 4.404740e+01 -6.040100e-01 0.000000e+00 2.950220e+02 1.765380e-03 1.059310e-03 5.781680e-04 7.683680e-01 2.282290e-01 6.000000e+00 0.000000e+00 0.000000e+00
2.000000e+00 3.130000e+02 1.669000e+03 9.799480e-02 3.242540e-02 5.000000e-04 1.116750e+05 6.076540e+01 -4.079410e+00 0.000000e+00 1.897530e+03 5.293990e-02 1.690360e-01 9.225920e-02 6.857650e-01 3.572500e-49 6.000000e+00 1.000000e+00 7.000000e+00
2.000000e+00 5.110000e+02 1.304000e+03 9.675240e-02 2.568540e-02 5.000000e-04 1.116430e+05 4.847450e+01 -1.250120e+00 0.000000e+00 1.898470e+03 5.371200e-02 1.688980e-01 9.218390e-02 6.852060e-01 4.281290e-58 6.000000e+00 1.000000e+00 7.000000e+00
2.000000e+00 9.910000e+02 5.260000e+02 9.877690e-02 1.067780e-02 5.000000e-04 1.114780e+05 7.245620e+01 -8.997180e-01 0.000000e+00 1.364520e+03 3.794600e-01 1.107820e-01 6.046440e-02 4.492930e-01 1.820310e-19 6.000000e+00 1.000000e+00 7.000000e+00
2.000000e+00 6.960000e+02 8.890000e+02 9.760940e-02 1.775330e-02 5.000000e-04 1.115190e+05 6.557590e+01 -6.563240e-01 0.000000e+00 1.424800e+03 2.116260e-01 1.407150e-01 7.680170e-02 5.708570e-01 1.554020e-36 6.000000e+00 1.000000e+00 7.000000e+00
2.000000e+00 9.610000e+02 7.850000e+02 9.776940e-02 1.518340e-02 5.000000e-04 1.114870e+05 7.043010e+01 -2.113510e+00 0.000000e+00 1.303110e+03 2.910680e-01 1.265360e-01 6.906310e-02 5.133330e-01 2.888960e-31 6.000000e+00 1.000000e+00 7.000000e+00
2.000000e+00 6.970000e+02 8.890000e+02 9.725090e-02 1.788270e-02 5.000000e-04 1.115190e+05 6.557590e+01 -6.563240e-01 0.000000e+00 1.424800e+03 2.116260e-01 1.407150e-01 7.680170e-02 5.708570e-01 1.554020e-36 6.000000e+00 1.000000e+00 7.000000e+00
2.000000e+00 5.470000e+02 1.512000e+03 9.675580e-02 2.935090e-02 5.000000e-04 1.116680e+05 5.827140e+01 -3.205430e+00 0.000000e+00 1.898150e+03 5.249470e-02 1.691150e-01 9.230250e-02 6.860870e-01 0.000000e+00 6.000000e+00 1.000000e+00 7.000000e+00
2.000000e+00 5.480000e+02 1.564000e+03 9.644360e-02 3.062920e-02 5.000000e-04 1.116710e+05 5.948740e+01 -3.645670e+00 0.000000e+00 1.898110e+03 5.272640e-02 1.690740e-01 9.228000e-02 6.859200e-01 1.052260e-51 6.000000e+00 1.000000e+00 7.000000e+00
2.000000e+00 4.300000e+02 1.668000e+03 9.635450e-02 3.224160e-02 5.000000e-04 1.116730e+05 6.037390e+01 -4.161620e+00 0.000000e+00 1.898090e+03 5.287450e-02 1.690480e-01 9.226560e-02 6.858120e-01 7.705490e-48 6.000000e+00 1.000000e+00 7.000000e+00
2.000000e+00 5.460000e+02 1.564000e+03 9.629260e-02 3.059880e-02 5.000000e-04 1.116710e+05 5.948740e+01 -3.645670e+00 0.000000e+00 1.898110e+03 5.272640e-02 1.690740e-01 9.228000e-02 6.859200e-01 1.052260e-51 6.000000e+00 1.000000e+00 7.000000e+00
2.000000e+00 1.105000e+03 3.680000e+02 9.667890e-02 7.863410e-03 5.000000e-04 1.115610e+05 8.309330e+01 -4.438150e-01 0.000000e+00 1.674480e+03 1.609940e-01 1.497630e-01 8.174020e-02 6.075020e-01 1.959440e-10 6.000000e+00 1.000000e+00 7.000000e+00
2.000000e+00 4.660000e+02 1.459000e+03 9.527590e-02 2.842590e-02 5.000000e-04 1.116640e+05 5.742320e+01 -2.891990e+00 0.000000e+00 1.899080e+03 5.198050e-02 1.692070e-01 9.235260e-02 6.864600e-01 1.673150e-53 6.000000e+00 1.000000e+00 7.000000e+00
2.000000e+00 6.950000e+02 8.870000e+02 9.566730e-02 1.759440e-02 5.000000e-04 1.115300e+05 6.783180e+01 -7.400810e-01 0.000000e+00 1.422690e+03 2.096270e-01 1.410720e-01 7.699640e-02 5.723050e-01 4.196190e-37 6.000000e+00 1.000000e+00 7.000000e+00
2.000000e+00 8.410000e+02 6.790000e+02 9.555540e-02 1.377530e-02 5.000000e-04 1.115130e+05 6.800140e+01 -1.194940e+00 0.000000e+00 1.250650e+03 3.961450e-01 1.077910e-01 5.883210e-02 4.372320e-01 1.431520e-27 6.000000e+00 1.000000e+00 7.000000e+00
2.000000e+00 3.120000e+02 1.615000e+03 9.504990e-02 3.153280e-02 5.000000e-04 1.116710e+05 5.954080e+01 -3.691530e+00 0.000000e+00 1.898340e+03 5.278680e-02 1.690630e-01 9.227410e-02 6.858760e-01 2.965740e-48 6.000000e+00 1.000000e+00 7.000000e+00
2.000000e+00 9.600000e+02 7.830000e+02 9.501870e-02 1.541290e-02 5.000000e-04 1.115070e+05 7.086890e+01 -1.473280e+00 0.000000e+00 1.303940e+03 2.960840e-01 1.256420e-01 6.857470e-02 5.097000e-01 8.604240e-32 6.000000e+00 1.000000e+00 7.000000e+00
2.000000e+00 1.106000e+03 4.190000e+02 9.535380e-02 8.017350e-03 5.000000e-04 1.115750e+05 8.031360e+01 -6.659050e-01 0.000000e+00 1.561930e+03 2.350190e-01 1.365550e-01 7.453140e-02 5.538940e-01 2.139920e-13 6.000000e+00 1.000000e+00 7.000000e+00
2.000000e+00 4.370000e+02 1.822000e+03 9.409280e-02 3.528570e-02 5.000000e-04 1.116590e+05 6.098700e+01 -3.186330e+00 0.000000e+00 1.898020e+03 5.231700e-02 1.691470e-01 9.231990e-02 6.862160e-01 1.737640e-43 6.000000e+00 1.000000e+00 7.000000e+00
2.000000e+00 1.104000e+03 3.140000e+02 9.468910e-02 6.569130e-03 5.000000e-04 1.116560e+05 8.301240e+01 5.115930e-01 0.000000e+00 1.815220e+03 7.286130e-02 1.654880e-01 9.032260e-02 6.713280e-01 3.451740e-07 6.000000e+00 1.000000e+00 7.000000e+00
2.000000e+00 6.980000e+02 8.850000e+02 9.388810e-02 1.776870e-02 5.000000e-04 1.115290e+05 6.894200e+01 -7.624570e-01 0.000000e+00 1.427740e+03 2.059870e-01 1.417210e-01 7.735090e-02 5.749410e-01 1.194590e-38 6.000000e+00 1.000000e+00 7.000000e+00
2.000000e+00 4.750000e+02 1.300000e+03 9.280870e-02 2.556640e-02 5.000000e-04 1.116250e+05 4.561710e+01 -1.425390e+00 0.000000e+00 1.899590e+03 5.261620e-02 1.690940e-01 9.229070e-02 6.859990e-01 2.374790e-51 6.000000e+00 1.000000e+00 7.000000e+00
2.000000e+00 1.067000e+03 4.690000e+02 9.325540e-02 9.424880e-03 5.000000e-04 1.116390e+05 7.644930e+01 -1.174880e+00 0.000000e+00 1.471410e+03 2.957110e-01 1.257260e-01 6.862050e-02 5.099430e-01 1.964190e-16 6.000000e+00 1.000000e+00 7.000000e+00
2.000000e+00 1.064000e+03 2.600000e+02 9.272630e-02 5.554890e-03 5.000000e-04 1.117680e+05 7.798900e+01 4.198000e-01 0.000000e+00 1.900000e+03 2.288090e-02 1.742660e-01 9.511360e-02 7.075590e-01 1.809470e-04 6.000000e+00 1.000000e+00 7.000000e+00
2.000000e+00 9.920000e+02 5.720000e+02 9.227770e-02 1.161850e-02 5.000000e-04 1.116120e+05 6.942380e+01 -1.202780e+00 0.000000e+00 1.317680e+03 3.931700e-01 1.083300e-01 5.912610e-02 4.393740e-01 1.940800e-22 6.000000e+00 1.000000e+00 7.000000e+00
2.000000e+00 9.620000e+02 8.320000e+02 9.204770e-02 1.656720e-02 5.000000e-04 1.115430e+05 7.158770e+01 -8.765460e-01 0.000000e+00 1.367240e+03 2.472150e-01 1.343630e-01 7.333480e-02 5.450870e-01 1.646570e-36 6.000000e+00 1.000000e+00 7.000000e+00