# PROC_ID	PARCEL_ID	CellI	X	Y	Z	p	Ux	Uy	Uz	T	C3H8	CO2	H2O	N2	O2
2	175	2588	0.1323	0.049705	0.0005	112128	17.7739	0.178932	0	350.992	0.257959	0.0145322	0.00793164	0.567613	0.151964
2	217	2599	0.143355	0.049071	0.0005	111959	20.0215	-0.648927	0	440.78	0.243719	0.0501168	0.0273536	0.569387	0.109423
2	102	2542	0.138342	0.0480123	0.0005	112070	23.527	0.559917	0	569.429	0.253257	0.0413777	0.0225838	0.564315	0.118467
2	218	2489	0.137229	0.0471893	0.0005	112035	26.2026	-1.25748	0	1592.35	0.20726	0.14123	0.0770827	0.574053	0.000374317
2	293	2284	0.140196	0.0432668	0.0005	112019	42.6347	-3.15693	0	1593.9	0.143285	0.152942	0.083475	0.620298	2.77332e-14
2	179	2529	0.125407	0.0480579	0.0005	111864	21.3487	-1.15765	0	362.413	0.208082	0.0328821	0.0179469	0.601309	0.13978
2	139	2476	0.124336	0.0478418	0.0005	111819	31.6409	0.383702	0	1727.38	0.137769	0.153384	0.0837162	0.624456	0.000675121
2	140	2373	0.125327	0.0458736	0.0005	111897	43.8279	-3.64074	0	1798.98	0.0750303	0.165105	0.0901139	0.66975	4.17242e-09
2	407	823	0.135805	0.015712	0.0005	111966	67.165	1.03716	0	1394.71	0.31582	0.122138	0.0666626	0.49538	3.75446e-28
2	557	773	0.137148	0.0148633	0.0005	111967	70.1527	1.16555	0	1337.67	0.357211	0.114757	0.0626339	0.465398	1.07348e-25
2	142	1133	0.133699	0.0210707	0.0005	111882	65.7733	-2.0279	0	1891.38	0.0668994	0.166546	0.0909	0.675655	2.66785e-45
2	444	818	0.130994	0.0159495	0.0005	111866	67.3711	0.590325	0	1352.35	0.334792	0.118749	0.0648129	0.481646	1.27586e-27
2	672	713	0.129723	0.0139447	0.0005	111830	72.8483	0.79877	0	1281.55	0.41021	0.105303	0.057474	0.427013	9.25049e-23
2	783	514	0.138752	0.0099335	0.0005	112043	88.9525	1.01147	0	1598.67	0.22147	0.138986	0.0758579	0.563686	2.83995e-13
2	405	813	0.125437	0.0157473	0.0005	111820	66.3544	-0.0821348	0	1344.49	0.33159	0.119317	0.0651229	0.48397	1.95908e-28
2	673	710	0.12671	0.0135657	0.0005	111802	72.0292	0.306673	0	1279.55	0.409596	0.105411	0.0575328	0.42746	7.43552e-23
2	480	809	0.121128	0.0154829	0.0005	111828	64.8567	-1.20687	0	1343.59	0.321792	0.121062	0.0660752	0.491071	3.73133e-32
2	636	650	0.118592	0.0128645	0.0005	111775	69.8785	-1.94366	0	1286.28	0.412853	0.104832	0.057217	0.425098	6.01514e-25
2	785	551	0.123151	0.0102999	0.0005	111706	81.9733	0.793033	0	1492.6	0.294473	0.125958	0.0687474	0.510822	2.6329e-17
2	178	1216	0.112611	0.0237891	0.0005	111783	54.0211	-0.510007	0	1895.69	0.0597039	0.167829	0.0916004	0.680867	1.95078e-55
2	822	496	0.120801	0.00941961	0.0005	111668	85.3668	0.341605	0	1529.08	0.270219	0.130283	0.0711077	0.528391	2.79315e-16
2	598	644	0.112391	0.0126386	0.0005	111647	68.6462	-3.23503	0	1276.8	0.407734	0.105739	0.057712	0.428815	2.78414e-24
2	784	390	0.118887	0.00712045	0.0005	111680	90.7283	-0.734518	0	1688.79	0.137888	0.153888	0.0839917	0.624232	1.7308e-10
2	711	590	0.110391	0.0117737	0.0005	111561	70.0559	-3.58229	0	1307.86	0.41107	0.105149	0.0573898	0.426391	2.84222e-21
2	710	536	0.108551	0.0107049	0.0005	111466	72.9038	-2.57167	0	1360.3	0.390743	0.108776	0.0593698	0.441111	2.25504e-18
2	748	586	0.106614	0.0118421	0.0005	111432	69.4927	-2.54539	0	1302.08	0.413874	0.104646	0.0571152	0.424366	4.32628e-21
2	520	843	0.103564	0.0164965	0.0005	111532	63.6511	-1.82042	0	1371.87	0.243188	0.135082	0.0737271	0.548003	2.18135e-34
2	558	843	0.103491	0.016443	0.0005	111532	63.6511	-1.82042	0	1371.87	0.243188	0.135082	0.0737271	0.548003	2.18135e-34
2	104	1413	0.101509	0.027809	0.0005	111651	61.2254	-2.20122	0	1896.77	0.0526847	0.169082	0.092284	0.68595	2.86482e-61
2	522	842	0.102081	0.0160401	0.0005	111519	64.5355	-1.86447	0	1368.02	0.243727	0.134986	0.0736746	0.547613	3.12987e-34
2	141	1668	0.0966958	0.0320782	0.0005	111673	60.3739	-4.16162	0	1898.09	0.0528745	0.169048	0.0922656	0.685812	7.70549e-48
2	745	265	0.0977451	0.00548331	0.0005	111549	78.5908	0.475919	0	1900	0.0178092	0.175211	0.0956293	0.711222	0.000129122
2	635	836	0.09651	0.0168793	0.0005	111508	70.6661	-1.50718	0	1353.28	0.250958	0.133695	0.0729701	0.542377	6.21172e-34
2	746	576	0.09602	0.0114073	0.0005	111518	69.5343	-1.18246	0	1302.71	0.411244	0.105107	0.0573672	0.426281	2.38053e-22
2	712	625	0.093414	0.0129126	0.0005	111564	68.5548	-1.20456	0	1270.98	0.411394	0.105074	0.0573492	0.426182	4.35628e-25
2	408	2310	0.0623193	0.0441991	0.0005	112643	12.743	-1.67953	0	420.648	0.120206	0.0420982	0.0229771	0.66661	0.148108
2	559	2309	0.0610056	0.04479	0.0005	112861	24.3065	-10.2618	0	618.89	0.136075	0.0702	0.0383149	0.647161	0.10825
2	481	2359	0.0593973	0.0457751	0.0005	112896	23.339	-4.24917	0	686.823	0.158895	0.0867406	0.0473427	0.625333	0.0816885
2	370	2410	0.0584356	0.0460943	0.0005	112967	15.7545	-2.00634	0	365.183	0.171116	0.0430183	0.0234792	0.62717	0.135216
2	404	2409	0.0571503	0.0465998	0.0005	112947	19.027	-3.87682	0	433.521	0.185362	0.0542194	0.0295927	0.613319	0.117508
2	365	2408	0.0567962	0.0467316	0.0005	112839	16.8362	-1.45743	0	517.653	0.197454	0.0661334	0.0360953	0.600941	0.0993758
2	445	2408	0.0565127	0.0468919	0.0005	112839	16.8362	-1.45743	0	517.653	0.197454	0.0661334	0.0360953	0.600941	0.0993758
2	482	2459	0.0553974	0.0470738	0.0005	113014	19.1299	-3.74564	0	361.143	0.20161	0.0332062	0.0181238	0.606213	0.140847
2	674	1794	0.0668675	0.0348888	0.0005	111654	47.0249	-10.7347	0	1325.74	0.100083	0.158405	0.086457	0.652196	0.00285909
2	483	2459	0.0558115	0.0472833	0.0005	113014	19.1299	-3.74564	0	361.143	0.20161	0.0332062	0.0181238	0.606213	0.140847
2	749	777	0.089826	0.0146421	0.0005	111603	69.3087	-1.48619	0	1286.59	0.3469	0.116576	0.0636264	0.472899	2.13779e-31
2	446	2458	0.0547324	0.047521	0.0005	112900	16.1938	-2.17174	0	385.342	0.205721	0.0370818	0.0202391	0.60205	0.134908
2	670	977	0.0818115	0.0180193	0.0005	111761	71.3493	-1.61287	0	1502.39	0.165058	0.149027	0.0813383	0.604576	3.4525e-39
2	671	1791	0.0634314	0.0349798	0.0005	111803	43.8082	1.61056	0	910.996	0.112133	0.126054	0.0687996	0.651237	0.0417766
2	747	715	0.0799759	0.0137582	0.0005	111687	64.6621	-0.947955	0	1314.93	0.361762	0.113933	0.062184	0.462121	2.97647e-24
2	787	710	0.0741097	0.0134296	0.0005	111457	62.4127	-1.98921	0	1347.24	0.349603	0.116104	0.063369	0.470924	1.13256e-22
2	786	707	0.0717678	0.013595	0.0005	111345	60.068	-2.83066	0	1358.08	0.350194	0.115998	0.0633115	0.470496	1.53744e-22
2	898	462	0.0868798	0.00833229	0.0005	111806	79.4729	-2.87922	0	1616.78	0.189006	0.144763	0.0790113	0.58722	2.94822e-15
2	860	562	0.0823966	0.0102668	0.0005	111764	75.7647	-2.35814	0	1495.08	0.252522	0.13343	0.0728257	0.541222	1.0896e-18
2	824	905	0.0615779	0.0170244	0.0005	111543	48.9438	-5.43549	0	1334.01	0.372829	0.111945	0.0610989	0.454127	3.14362e-26
2	823	800	0.0607328	0.0154373	0.0005	111576	50.8291	-4.41737	0	1267.88	0.418314	0.103833	0.0566716	0.421181	3.4527e-30
2	821	388	0.0646871	0.00743936	0.0005	111511	69.0419	0.953505	0	1862.21	0.0337783	0.172482	0.0941398	0.699594	6.10401e-06
2	859	222	0.0544907	0.00440605	0.0005	111596	40.5114	-1.66273	0	1532.39	0.00403016	0.172206	0.0939892	0.722415	0.00735997
2	825	1262	0.0547492	0.0246953	0.0005	112178	50.8859	-6.16432	0	1510.99	0.270398	0.130223	0.0710754	0.528303	3.89792e-30
2	750	1884	0.0529961	0.0367889	0.0005	112530	48.4183	-4.49951	0	1830.73	0.0995751	0.160717	0.0877188	0.651989	1.63048e-24
2	899	794	0.0540011	0.0152417	0.0005	112020	51.4877	-1.83947	0	1291.06	0.427356	0.102213	0.0557874	0.414644	4.09903e-26
2	788	1932	0.0480575	0.0374792	0.0005	112697	41.6189	-10.0148	0	1844.87	0.0930237	0.161887	0.0883575	0.656731	1.46171e-28
2	864	1409	0.0459821	0.0278101	0.0005	112534	40.8817	-7.19738	0	1797.03	0.131005	0.155108	0.0846574	0.629229	7.56773e-21
2	595	2448	0.0440541	0.0475814	0.0005	112641	40.7073	-3.77974	0	1873.35	0.0932995	0.161983	0.0884095	0.656307	9.83117e-07
2	862	1564	0.044119	0.03021	0.0005	112708	56.0463	-8.12424	0	1784.11	0.138548	0.153758	0.0839207	0.623773	2.85763e-23
2	897	731	0.0438074	0.014272	0.0005	112530	53.5897	2.77893	0	1561.79	0.2519	0.133534	0.0728824	0.541683	1.60121e-15
2	900	885	0.0410283	0.0179565	0.0005	112504	41.7395	-1.42229	0	1265.06	0.421455	0.103268	0.0563633	0.418914	1.17573e-10
2	863	1612	0.0404609	0.0316731	0.0005	112867	52.9452	0.90603	0	1743.14	0.160979	0.149753	0.0817348	0.607533	2.97042e-19
2	60	2473	-0.0239999	0.012	0.0005	112385	11.4739	0.037808	0	287.744	1	3.8955e-41	2.12615e-41	0	1.9227e-28
2	67	2573	-0.0239999	0.017	0.0005	112430	11.4689	-0.057259	0	287.75	1	2.87231e-41	1.5677e-41	0	2.31417e-29
2	98	2473	-0.0239999	0.012	0.0005	112385	11.4739	0.037808	0	287.744	1	3.8955e-41	2.12615e-41	0	1.9227e-28
2	105	2573	-0.0239999	0.017	0.0005	112430	11.4689	-0.057259	0	287.75	1	2.87231e-41	1.5677e-41	0	2.31417e-29
2	136	2473	-0.0239999	0.012	0.0005	112385	11.4739	0.037808	0	287.744	1	3.8955e-41	2.12615e-41	0	1.9227e-28
2	143	2573	-0.0239999	0.017	0.0005	112430	11.4689	-0.057259	0	287.75	1	2.87231e-41	1.5677e-41	0	2.31417e-29
2	174	2473	-0.0239999	0.012	0.0005	112385	11.4739	0.037808	0	287.744	1	3.8955e-41	2.12615e-41	0	1.9227e-28
2	181	2573	-0.0239999	0.017	0.0005	112430	11.4689	-0.057259	0	287.75	1	2.87231e-41	1.5677e-41	0	2.31417e-29
2	212	2473	-0.0239999	0.012	0.0005	112385	11.4739	0.037808	0	287.744	1	3.8955e-41	2.12615e-41	0	1.9227e-28
2	219	2573	-0.0239999	0.017	0.0005	112430	11.4689	-0.057259	0	287.75	1	2.87231e-41	1.5677e-41	0	2.31417e-29
2	250	2473	-0.0239999	0.012	0.0005	112385	11.4739	0.037808	0	287.744	1	3.8955e-41	2.12615e-41	0	1.9227e-28
2	257	2573	-0.0239999	0.017	0.0005	112430	11.4689	-0.057259	0	287.75	1	2.87231e-41	1.5677e-41	0	2.31417e-29
2	288	2473	-0.0239999	0.012	0.0005	112385	11.4739	0.037808	0	287.744	1	3.8955e-41	2.12615e-41	0	1.9227e-28
2	295	2573	-0.0239999	0.017	0.0005	112430	11.4689	-0.057259	0	287.75	1	2.87231e-41	1.5677e-41	0	2.31417e-29
2	326	2473	-0.0239999	0.012	0.0005	112385	11.4739	0.037808	0	287.744	1	3.8955e-41	2.12615e-41	0	1.9227e-28
2	333	2573	-0.0239999	0.017	0.0005	112430	11.4689	-0.057259	0	287.75	1	2.87231e-41	1.5677e-41	0	2.31417e-29
2	364	2473	-0.0239999	0.012	0.0005	112385	11.4739	0.037808	0	287.744	1	3.8955e-41	2.12615e-41	0	1.9227e-28
2	371	2573	-0.0239999	0.017	0.0005	112430	11.4689	-0.057259	0	287.75	1	2.87231e-41	1.5677e-41	0	2.31417e-29
2	402	2473	-0.0239999	0.012	0.0005	112385	11.4739	0.037808	0	287.744	1	3.8955e-41	2.12615e-41	0	1.9227e-28
2	409	2573	-0.0239999	0.017	0.0005	112430	11.4689	-0.057259	0	287.75	1	2.87231e-41	1.5677e-41	0	2.31417e-29
2	440	2473	-0.0239999	0.012	0.0005	112385	11.4739	0.037808	0	287.744	1	3.8955e-41	2.12615e-41	0	1.9227e-28
2	447	2573	-0.0239999	0.017	0.0005	112430	11.4689	-0.057259	0	287.75	1	2.87231e-41	1.5677e-41	0	2.31417e-29
2	478	2473	-0.0239999	0.012	0.0005	112385	11.4739	0.037808	0	287.744	1	3.8955e-41	2.12615e-41	0	1.9227e-28
2	484	1978	0.0181361	0.0499963	0.0005	111849	-9.01921	-5.01547	0	707.216	0.0538616	0.0701889	0.0383088	0.710377	0.127264
2	485	2573	-0.0239999	0.017	0.0005	112430	11.4689	-0.057259	0	287.75	1	2.87231e-41	1.5677e-41	0	2.31417e-29
2	516	2473	-0.0239999	0.012	0.0005	112385	11.4739	0.037808	0	287.744	1	3.8955e-41	2.12615e-41	0	1.9227e-28
2	521	1285	0.00518059	0.0327169	0.0005	113486	11.034	-9.68152	0	305.895	0.100815	0.0006665	0.000363773	0.692201	0.205954
2	523	2573	-0.0239999	0.017	0.0005	112430	11.4689	-0.057259	0	287.75	1	2.87231e-41	1.5677e-41	0	2.31417e-29
2	554	2473	-0.0239999	0.012	0.0005	112385	11.4739	0.037808	0	287.744	1	3.8955e-41	2.12615e-41	0	1.9227e-28
2	560	1956	0.0361304	0.0482514	0.0005	112535	34.2912	-2.23548	0	1874.95	0.0896196	0.162304	0.0885849	0.659029	0.000462573
2	561	2573	-0.0239999	0.017	0.0005	112430	11.4689	-0.057259	0	287.75	1	2.87231e-41	1.5677e-41	0	2.31417e-29
2	592	2473	-0.0239999	0.012	0.0005	112385	11.4739	0.037808	0	287.744	1	3.8955e-41	2.12615e-41	0	1.9227e-28
2	596	1952	0.0328531	0.0485181	0.0005	112937	36.2356	-2.60703	0	1899.52	0.0671797	0.166006	0.0906055	0.675497	0.000712234
2	597	1953	0.033595	0.0483947	0.0005	112851	36.2146	-2.26448	0	1899.4	0.073188	0.16501	0.0900618	0.671095	0.000645075
2	599	2573	-0.0239999	0.017	0.0005	112430	11.4689	-0.057259	0	287.75	1	2.87231e-41	1.5677e-41	0	2.31417e-29
2	630	2473	-0.0239999	0.012	0.0005	112385	11.4739	0.037808	0	287.744	1	3.8955e-41	2.12615e-41	0	1.9227e-28
2	637	2573	-0.0239999	0.017	0.0005	112430	11.4689	-0.057259	0	287.75	1	2.87231e-41	1.5677e-41	0	2.31417e-29
2	668	2473	-0.0239999	0.012	0.0005	112385	11.4739	0.037808	0	287.744	1	3.8955e-41	2.12615e-41	0	1.9227e-28
2	675	2573	-0.0239999	0.017	0.0005	112430	11.4689	-0.057259	0	287.75	1	2.87231e-41	1.5677e-41	0	2.31417e-29
2	706	2473	-0.0239999	0.012	0.0005	112385	11.4739	0.037808	0	287.744	1	3.8955e-41	2.12615e-41	0	1.9227e-28
2	713	2573	-0.0239999	0.017	0.0005	112430	11.4689	-0.057259	0	287.75	1	2.87231e-41	1.5677e-41	0	2.31417e-29
2	744	2473	-0.0239999	0.012	0.0005	112385	11.4739	0.037808	0	287.744	1	3.8955e-41	2.12615e-41	0	1.9227e-28
2	751	2573	-0.0239999	0.017	0.0005	112430	11.4689	-0.057259	0	287.75	1	2.87231e-41	1.5677e-41	0	2.31417e-29
2	782	2473	-0.0239999	0.012	0.0005	112385	11.4739	0.037808	0	287.744	1	3.8955e-41	2.12615e-41	0	1.9227e-28
2	789	2573	-0.0239999	0.017	0.0005	112430	11.4689	-0.057259	0	287.75	1	2.87231e-41	1.5677e-41	0	2.31417e-29
2	820	2473	-0.0239999	0.012	0.0005	112385	11.4739	0.037808	0	287.744	1	3.8955e-41	2.12615e-41	0	1.9227e-28
2	826	1279	0.0391079	0.0315422	0.0005	112882	52.5176	2.95866	0	1729.04	0.165985	0.14886	0.081247	0.603908	5.46323e-18
2	827	2573	-0.0239999	0.017	0.0005	112430	11.4689	-0.057259	0	287.75	1	2.87231e-41	1.5677e-41	0	2.31417e-29
2	858	2473	-0.0239999	0.012	0.0005	112385	11.4739	0.037808	0	287.744	1	3.8955e-41	2.12615e-41	0	1.9227e-28
2	861	915	0.035121	0.0227284	0.0005	112877	36.2981	1.09727	0	1321.51	0.384805	0.105971	0.0578384	0.446447	0.00493851
2	865	2573	-0.0239999	0.017	0.0005	112430	11.4689	-0.057259	0	287.75	1	2.87231e-41	1.5677e-41	0	2.31417e-29
2	896	2473	-0.0239999	0.012	0.0005	112385	11.4739	0.037808	0	287.744	1	3.8955e-41	2.12615e-41	0	1.9227e-28
2	901	1110	0.0309152	0.0273639	0.0005	113206	25.5044	-1.31716	0	400.636	0.208119	0.00931686	0.0050851	0.607352	0.170126
2	902	835	0.0356682	0.0208385	0.0005	112836	33.7548	-1.01954	0	768.314	0.445488	0.0258186	0.0140917	0.420333	0.0942683
2	903	2573	-0.0239999	0.017	0.0005	112430	11.4689	-0.057259	0	287.75	1	2.87231e-41	1.5677e-41	0	2.31417e-29
2	934	2473	-0.0239999	0.012	0.0005	112385	11.4739	0.037808	0	287.744	1	3.8955e-41	2.12615e-41	0	1.9227e-28
2	935	234	0.0345595	0.0058765	0.0005	112756	56.5853	-1.00795	0	1900	0.017304	0.17505	0.0955418	0.711656	0.000447962
2	936	704	0.0240581	0.0170794	0.0005	112852	32.2155	4.83136	0	1044.55	0.456616	0.0551481	0.0300996	0.404221	0.0539151
2	937	1021	0.0219263	0.0259997	0.0005	113260	22.2874	11.3945	0	312.974	0.308984	0.000450753	0.000246019	0.531967	0.158353
2	938	798	0.0384468	0.0199229	0.0005	112685	41.8342	-4.01372	0	1262.27	0.431414	0.100993	0.0551216	0.411837	0.000634939
2	939	876	0.0368006	0.0211586	0.0005	112783	31.3266	-0.11103	0	717.217	0.433216	0.0257161	0.0140357	0.42981	0.0972222
2	940	986	0.0265024	0.0246554	0.0005	113031	19.0378	-0.469839	0	354.685	0.239175	0.000163832	8.94189e-05	0.585793	0.174779
2	941	2573	-0.0239999	0.017	0.0005	112430	11.4689	-0.057259	0	287.75	1	2.87231e-41	1.5677e-41	0	2.31417e-29
2	972	2473	-0.0239999	0.012	0.0005	112385	11.4739	0.037808	0	287.744	1	3.8955e-41	2.12615e-41	0	1.9227e-28
2	973	591	0.0315552	0.014078	0.0005	112738	49.1895	2.46719	0	1418.25	0.3341	0.118856	0.0648711	0.482173	6.48568e-13
2	974	397	0.0370198	0.00934219	0.0005	112684	59.4048	3.64591	0	1876.46	0.0561724	0.168467	0.0919487	0.683412	2.12105e-12
2	975	557	0.0371535	0.0130732	0.0005	112577	51.5671	0.657469	0	1478.39	0.304641	0.124112	0.0677399	0.503507	1.42403e-19
2	976	701	0.0214551	0.0170313	0.0005	113452	23.6922	4.72572	0	488.942	0.48348	0.00468913	0.00255931	0.396512	0.11276
2	977	742	0.0220939	0.0185796	0.0005	113228	25.8092	6.14559	0	586.564	0.510893	0.00486076	0.00265298	0.375362	0.106231
2	978	1104	0.0243073	0.027415	0.0005	113313	24.5528	6.09076	0	295.394	0.143601	2.36831e-05	1.29261e-05	0.659421	0.196941
2	979	2573	-0.0239999	0.017	0.0005	112430	11.4689	-0.057259	0	287.75	1	2.87231e-41	1.5677e-41	0	2.31417e-29
2	1010	2473	-0.0239999	0.012	0.0005	112385	11.4739	0.037808	0	287.744	1	3.8955e-41	2.12615e-41	0	1.9227e-28
2	1011	299	0.019302	0.00794418	0.0005	113756	47.3254	14.005	0	1900	0.0728375	0.154661	0.0844134	0.67414	0.0139483
2	1012	699	0.0192082	0.017413	0.0005	113616	21.4076	4.59208	0	433.702	0.459748	0.00602564	0.00328877	0.414442	0.116496
2	1013	693	0.0137847	0.0174682	0.0005	113824	10.234	5.18104	0	362.225	0.466483	3.80902e-05	2.07895e-05	0.410798	0.12266
2	1014	781	0.0216851	0.0194611	0.0005	113282	23.4226	5.78954	0	510.12	0.490394	0.00224686	0.00122633	0.391819	0.114314
2	1015	1021	0.0211116	0.0256789	0.0005	113260	22.2874	11.3945	0	312.974	0.308984	0.000450753	0.000246019	0.531967	0.158353
2	1016	770	0.010859	0.019383	0.0005	113813	19.6962	10.1313	0	305.16	0.432618	1.88275e-09	1.0276e-09	0.436884	0.130498
2	1017	2573	-0.0239999	0.017	0.0005	112430	11.4689	-0.057259	0	287.75	1	2.87231e-41	1.5677e-41	0	2.31417e-29
2	1048	2473	-0.0239999	0.012	0.0005	112385	11.4739	0.037808	0	287.744	1	3.8955e-41	2.12615e-41	0	1.9227e-28
2	1049	295	0.015106	0.00788933	0.0005	114175	24.4708	-4.53248	0	397.001	0.202032	0.00716105	0.00390847	0.612594	0.174305
2	1050	375	0.0157987	0.00902303	0.0005	113906	24.9681	6.27847	0	591.789	0.264875	0.0196221	0.0107097	0.561	0.143793
2	1051	531	0.0118655	0.0134046	0.0005	114038	20.5405	1.517	0	347.753	0.492427	1.74931e-06	9.54766e-07	0.390831	0.11674
2	1052	690	0.0108033	0.0171695	0.0005	113880	14.3037	5.22577	0	333.577	0.642634	1.83741e-08	1.00285e-08	0.275172	0.0821941
2	1053	730	0.0106148	0.0185862	0.0005	113902	17.0625	6.347	0	318.546	0.536817	7.61383e-09	4.1556e-09	0.356651	0.106532
2	1054	893	0.0135743	0.0220814	0.0005	113535	27.9661	7.30223	0	290.427	0.129386	1.10256e-09	6.01773e-10	0.670372	0.200241
2	1055	2573	-0.0239999	0.017	0.0005	112430	11.4689	-0.057259	0	287.75	1	2.87231e-41	1.5677e-41	0	2.31417e-29
2	1086	2473	-0.0239999	0.012	0.0005	112385	11.4739	0.037808	0	287.744	1	3.8955e-41	2.12615e-41	0	1.9227e-28
2	1087	365	0.00517847	0.00998081	0.0005	114233	24.2764	-7.92124	0	291.376	0.5345	7.54105e-15	4.11588e-15	0.358435	0.107065
2	1088	374	0.0148771	0.00912883	0.0005	114152	21.2248	-0.0616715	0	353.689	0.270344	0.00275557	0.00150398	0.561127	0.16427
2	1089	531	0.0114925	0.0133013	0.0005	114038	20.5405	1.517	0	347.753	0.492427	1.74931e-06	9.54766e-07	0.390831	0.11674
2	1090	609	0.00987844	0.0157276	0.0005	113910	14.9185	2.25374	0	328.302	0.753402	2.36775e-09	1.29231e-09	0.189881	0.0567176
2	1091	730	0.0103546	0.0188316	0.0005	113902	17.0625	6.347	0	318.546	0.536817	7.61383e-09	4.1556e-09	0.356651	0.106532
2	1092	648	0.00876496	0.0166964	0.0005	113899	15.9747	0.388948	0	309.029	0.649014	6.84549e-11	3.73624e-11	0.270259	0.0807267
2	1093	2573	-0.0239999	0.017	0.0005	112430	11.4689	-0.057259	0	287.75	1	2.87231e-41	1.5677e-41	0	2.31417e-29
2	1124	2473	-0.0239999	0.012	0.0005	112385	11.4739	0.037808	0	287.744	1	3.8955e-41	2.12615e-41	0	1.9227e-28
2	1125	324	0.00431519	0.0088936	0.0005	114530	25.099	-6.50233	0	289.74	0.371859	1.84437e-15	1.00665e-15	0.483668	0.144472
2	1126	525	0.00534946	0.0133321	0.0005	113931	10.6519	0.0923583	0	298.719	0.708185	2.90687e-13	1.58656e-13	0.224697	0.0671174
2	1127	566	0.00628177	0.0148652	0.0005	113879	10.1545	0.40755	0	303.226	0.747253	1.53896e-12	8.39957e-13	0.194615	0.0581318
2	1128	607	0.00797225	0.0157497	0.0005	113857	10.6197	2.22408	0	308.02	0.758438	1.10821e-11	6.04859e-12	0.186003	0.0555592
2	1129	648	0.0089837	0.0162854	0.0005	113899	15.9747	0.388948	0	309.029	0.649014	6.84549e-11	3.73624e-11	0.270259	0.0807267
2	1130	643	0.00348412	0.0161899	0.0005	113834	9.77034	8.81033	0	289.117	0.770432	2.69148e-15	1.469e-15	0.176767	0.0528006
2	1131	2573	-0.0239999	0.017	0.0005	112430	11.4689	-0.057259	0	287.75	1	2.87231e-41	1.5677e-41	0	2.31417e-29
2	1162	2473	-0.0239999	0.012	0.0005	112385	11.4739	0.037808	0	287.744	1	3.8955e-41	2.12615e-41	0	1.9227e-28
2	1163	483	0.00319772	0.0124133	0.0005	114120	22.4483	2.45195	0	289.04	0.907357	1.73784e-15	9.48507e-16	0.0713352	0.0213079
2	1164	364	0.00482799	0.00998472	0.0005	114334	22.2706	-9.0102	0	290.079	0.528345	3.7495e-15	2.04646e-15	0.363174	0.108481
2	1165	484	0.00487382	0.0120919	0.0005	114115	21.0451	-1.4668	0	290.677	0.874375	1.1177e-14	6.10036e-15	0.0967314	0.0288938
2	1166	524	0.00437913	0.0134989	0.0005	113966	13.4294	1.92018	0	291.724	0.858677	2.52458e-14	1.37791e-14	0.108818	0.0325042
2	1167	564	0.00406797	0.0143771	0.0005	113923	12.9488	2.37848	0	290.79	0.88528	1.23243e-14	6.72653e-15	0.0883345	0.0263856
2	1168	642	0.002186	0.0161539	0.0005	113816	13.4527	7.69558	0	289.188	0.87976	3.27634e-16	1.78821e-16	0.0925844	0.0276551
2	1169	2573	-0.0239999	0.017	0.0005	112430	11.4689	-0.057259	0	287.75	1	2.87231e-41	1.5677e-41	0	2.31417e-29
2	1200	2473	-0.0239999	0.012	0.0005	112385	11.4739	0.037808	0	287.744	1	3.8955e-41	2.12615e-41	0	1.9227e-28
2	1201	2450	-0.000241584	0.0127881	0.0005	114011	6.06539	2.74397	0	288.928	0.992074	2.3562e-18	1.286e-18	0.00610279	0.00182291
2	1202	482	0.00281395	0.0129292	0.0005	114195	19.3888	4.51574	0	288.926	0.852074	2.18669e-16	1.19349e-16	0.113903	0.034023
2	1203	522	0.0026371	0.0135625	0.0005	113938	13.8125	2.11834	0	289.017	0.974407	1.50128e-16	8.19393e-17	0.0197069	0.00588648
2	1204	562	0.00259592	0.0147821	0.0005	113934	13.6111	4.79922	0	289.018	0.978664	8.41922e-17	4.59518e-17	0.0164289	0.00490733
2	1205	602	0.00240458	0.01543	0.0005	113790	15.6071	3.59476	0	289.042	0.959887	1.00844e-16	5.50402e-17	0.0308873	0.00922607
2	1206	2550	-0.000180622	0.0161397	0.0005	113643	12.9692	-0.348535	0	288.883	0.998137	1.5216e-18	8.30481e-19	0.00143488	0.0004286
2	1207	2573	-0.0239999	0.017	0.0005	112430	11.4689	-0.057259	0	287.75	1	2.87231e-41	1.5677e-41	0	2.31417e-29
2	1238	2473	-0.0239999	0.012	0.0005	112385	11.4739	0.037808	0	287.744	1	3.8955e-41	2.12615e-41	0	1.9227e-28
2	1239	2452	-0.0024647	0.0128095	0.0005	113828	8.83708	0.832397	0	288.795	0.999986	1.90024e-20	1.03714e-20	1.05118e-05	3.13988e-06
2	1240	2475	-0.000146567	0.0134627	0.0005	113862	13.078	2.72356	0	288.833	0.999299	3.40357e-19	1.85766e-19	0.000539799	0.000161239
2	1241	560	0.000110645	0.0141195	0.0005	113890	13.2534	2.34929	0	288.878	0.998928	4.21687e-19	2.30155e-19	0.000825458	0.000246565
2	1242	560	8.48884e-05	0.0147778	0.0005	113890	13.2534	2.34929	0	288.878	0.998928	4.21687e-19	2.30155e-19	0.000825458	0.000246565
2	1243	2525	-0.000172568	0.0154681	0.0005	113697	14.1667	1.69294	0	288.81	0.999783	2.794e-19	1.52495e-19	0.00016747	5.00234e-05
2	1244	2552	-0.00245546	0.0161643	0.0005	113630	10.9838	-0.066455	0	288.767	0.999984	1.53926e-20	8.40124e-21	1.21168e-05	3.61929e-06
2	1245	2573	-0.0239999	0.017	0.0005	112430	11.4689	-0.057259	0	287.75	1	2.87231e-41	1.5677e-41	0	2.31417e-29
2	1276	2473	-0.0239999	0.012	0.0005	112385	11.4739	0.037808	0	287.744	1	3.8955e-41	2.12615e-41	0	1.9227e-28
2	1277	2455	-0.005034	0.0127956	0.0005	113481	10.4144	0.212494	0	288.571	1	2.98993e-23	1.63189e-23	8.51316e-09	2.54289e-09
2	1278	2477	-0.00299315	0.0134849	0.0005	113774	12.2824	0.689117	0	288.721	0.999998	2.75312e-21	1.50264e-21	1.41601e-06	4.22963e-07
2	1279	2502	-0.00278848	0.0141501	0.0005	113723	12.2576	0.81822	0	288.702	1	2.76082e-22	1.50685e-22	1.17686e-07	3.5153e-08
2	1280	2502	-0.0027923	0.0148214	0.0005	113723	12.2576	0.81822	0	288.702	1	2.76082e-22	1.50685e-22	1.17686e-07	3.5153e-08
2	1281	2527	-0.00299806	0.0154972	0.0005	113663	12.9768	0.780318	0	288.705	0.999998	2.11379e-21	1.1537e-21	1.39382e-06	4.16335e-07
2	1282	2555	-0.00500914	0.0161949	0.0005	113507	10.6753	-0.192821	0	288.577	1	1.4941e-23	8.15474e-24	7.96383e-09	2.3788e-09
2	1283	2573	-0.0239999	0.017	0.0005	112430	11.4689	-0.057259	0	287.75	1	2.87231e-41	1.5677e-41	0	2.31417e-29
2	1314	2473	-0.0239999	0.012	0.0005	112385	11.4739	0.037808	0	287.744	1	3.8955e-41	2.12615e-41	0	1.9227e-28
2	1315	2457	-0.00732989	0.0127891	0.0005	113224	10.3075	0.102793	0	288.428	1	3.71805e-25	2.0293e-25	8.74212e-11	2.61107e-11
2	1316	2480	-0.00558296	0.0134789	0.0005	113479	11.5864	0.126108	0	288.518	1	4.30064e-24	2.34727e-24	1.01429e-09	3.02966e-10
2	1317	2505	-0.00543983	0.0141565	0.0005	113494	11.9887	0.00939061	0	288.512	1	2.4612e-25	1.34331e-25	4.93456e-11	1.47377e-11
2	1318	2505	-0.00544068	0.0148345	0.0005	113494	11.9887	0.00939061	0	288.512	1	2.4612e-25	1.34331e-25	4.93456e-11	1.47377e-11
2	1319	2530	-0.00558466	0.0155141	0.0005	113497	11.7846	0.0566644	0	288.522	1	1.53498e-24	8.37784e-25	6.44121e-10	1.92396e-10
2	1320	2557	-0.0073178	0.0162065	0.0005	113286	10.3591	-0.111882	0	288.438	1	1.30158e-25	7.10395e-26	4.31035e-11	1.28747e-11
2	1321	2573	-0.0239999	0.017	0.0005	112430	11.4689	-0.057259	0	287.75	1	2.87231e-41	1.5677e-41	0	2.31417e-29
2	1352	2473	-0.0239999	0.012	0.0005	112385	11.4739	0.037808	0	287.744	1	3.8955e-41	2.12615e-41	0	1.9227e-28
2	1353	2459	-0.00989849	0.0127823	0.0005	112998	10.1062	0.048827	0	288.302	1	3.69678e-27	2.01769e-27	6.69576e-13	1.98387e-13
2	1354	2483	-0.00838042	0.0134725	0.0005	113109	11.3531	0.00689172	0	288.328	1	3.80446e-27	2.07646e-27	6.85008e-13	2.02591e-13
2	1355	2508	-0.00829259	0.0141565	0.0005	113117	11.306	-0.0455825	0	288.324	1	1.56379e-28	8.5351e-29	2.74225e-14	6.43581e-15
2	1356	2508	-0.00829322	0.0148412	0.0005	113117	11.306	-0.0455825	0	288.324	1	1.56379e-28	8.5351e-29	2.74225e-14	6.43581e-15
2	1357	2533	-0.00838219	0.0155256	0.0005	113130	11.3746	-0.0900769	0	288.331	1	1.19086e-27	6.49967e-28	2.12386e-13	6.09246e-14
2	1358	2559	-0.0098949	0.0162172	0.0005	113003	10.1569	-0.0896177	0	288.303	1	1.13343e-27	6.18622e-28	2.02616e-13	5.94198e-14
2	1359	2573	-0.0239999	0.017	0.0005	112430	11.4689	-0.057259	0	287.75	1	2.87231e-41	1.5677e-41	0	2.31417e-29
2	1390	2473	-0.0239999	0.012	0.0005	112385	11.4739	0.037808	0	287.744	1	3.8955e-41	2.12615e-41	0	1.9227e-28
2	1391	2462	-0.012387	0.0127702	0.0005	112669	10.1457	0.036323	0	288.143	1	3.87725e-30	2.11619e-30	4.44089e-15	1.22973e-16
2	1392	2486	-0.0111363	0.0134638	0.0005	112775	11.0336	-0.0270659	0	288.172	1	4.29091e-30	2.34196e-30	9.65894e-15	1.32969e-16
2	1393	2511	-0.0110781	0.0141541	0.0005	112774	11.0102	-0.0739549	0	288.168	1	3.39764e-31	1.85442e-31	3.9968e-15	7.16991e-18
2	1394	2511	-0.0110776	0.0148455	0.0005	112774	11.0102	-0.0739549	0	288.168	1	3.39764e-31	1.85442e-31	3.9968e-15	7.16991e-18
2	1395	2536	-0.0111342	0.0155355	0.0005	112774	10.9913	-0.0880498	0	288.172	1	2.62078e-30	1.43041e-30	4.32987e-15	5.11209e-17
2	1396	2562	-0.0123748	0.0162281	0.0005	112680	9.99288	-0.0574911	0	288.145	1	2.01045e-30	1.0973e-30	1.66533e-15	3.94266e-17
2	1397	2573	-0.0239999	0.017	0.0005	112430	11.4689	-0.057259	0	287.75	1	2.87231e-41	1.5677e-41	0	2.31417e-29
2	1428	2474	-0.024	0.012	0.0005	112411	11.1565	0.0293753	0	287.857	1	1.90151e-42	1.03784e-42	0	8.06213e-30
2	1429	2464	-0.0148659	0.0127593	0.0005	112489	10.3595	0.0812532	0	288.05	1	5.21496e-32	2.84631e-32	4.44089e-15	1.13205e-18
2	1430	2488	-0.0138653	0.0134547	0.0005	112579	11.0414	0.050357	0	288.078	1	4.56818e-32	2.49329e-32	1.55431e-15	9.73451e-19
2	1431	2513	-0.0138366	0.0141503	0.0005	112583	10.9438	0.0219306	0	288.081	1	5.13893e-33	2.80481e-33	3.66374e-15	6.79853e-20
2	1432	2513	-0.0138364	0.0148481	0.0005	112583	10.9438	0.0219306	0	288.081	1	5.13893e-33	2.80481e-33	3.66374e-15	6.79853e-20
2	1433	2538	-0.0138641	0.015544	0.0005	112588	10.9245	-0.0139214	0	288.082	1	4.80276e-32	2.62133e-32	6.99441e-15	5.66366e-19
2	1434	2564	-0.0148707	0.0162416	0.0005	112489	10.1969	-0.030355	0	288.051	1	3.8679e-32	2.11108e-32	6.66134e-16	4.57267e-19
2	1435	2574	-0.024	0.017	0.0005	112454	11.1509	-0.0498294	0	287.863	1	1.15469e-42	6.30226e-43	0	7.51585e-31
2	1466	2474	-0.0240031	0.012	0.0005	112411	11.1565	0.0293753	0	287.857	1	1.90151e-42	1.03784e-42	0	8.06213e-30
2	1467	2467	-0.0174916	0.0127454	0.0005	112345	10.6864	0.0997429	0	287.958	1	9.24984e-35	5.04853e-35	3.33067e-15	1.29226e-21
2	1468	2491	-0.0167507	0.0134449	0.0005	112365	11.1692	0.140021	0	287.969	1	9.86827e-35	5.38606e-35	2.55351e-15	1.38147e-21
2	1469	2516	-0.0167364	0.0141467	0.0005	112349	11.1029	0.131471	0	287.967	1	7.31513e-36	3.99257e-36	3.77476e-15	5.27168e-23
2	1470	2516	-0.0167366	0.014851	0.0005	112349	11.1029	0.131471	0	287.967	1	7.31513e-36	3.99257e-36	3.77476e-15	5.27168e-23
2	1471	2541	-0.0167509	0.0155536	0.0005	112334	11.1826	0.0721982	0	287.965	1	7.54198e-35	4.11638e-35	2.66454e-15	3.1287e-22
2	1472	2567	-0.0174941	0.016255	0.0005	112287	10.7876	-0.0331346	0	287.949	1	7.88318e-35	4.30261e-35	2.77556e-15	3.54996e-22
2	1473	2574	-0.0240031	0.017	0.0005	112454	11.1509	-0.0498294	0	287.863	1	1.15469e-42	6.30226e-43	0	7.51585e-31
2	1504	2474	-0.0240329	0.012	0.0005	112411	11.1565	0.0293753	0	287.857	1	1.90151e-42	1.03784e-42	0	8.06213e-30
2	1505	2469	-0.0199427	0.0127345	0.0005	112330	11.1138	0.0850345	0	287.907	1	9.55046e-37	5.2126e-37	2.55351e-15	8.97903e-24
2	1506	2494	-0.0194753	0.0134384	0.0005	112328	11.4905	0.0470188	0	287.902	1	1.11727e-37	6.09802e-38	0	8.87055e-25
2	1507	2519	-0.019474	0.0141454	0.0005	112323	11.4679	0.0256978	0	287.903	1	7.75827e-39	4.23443e-39	2.22045e-15	3.02472e-26
2	1508	2519	-0.0194742	0.0148547	0.0005	112323	11.4679	0.0256978	0	287.903	1	7.75827e-39	4.23443e-39	2.22045e-15	3.02472e-26
2	1509	2544	-0.0194756	0.0155617	0.0005	112319	11.5668	-0.00587871	0	287.902	1	9.66237e-38	5.27368e-38	2.66454e-15	1.48644e-25
2	1510	2569	-0.0199422	0.0162656	0.0005	112315	11.2367	-0.0696398	0	287.905	1	1.10896e-36	6.05263e-37	1.55431e-15	2.52466e-24
2	1511	2574	-0.0240329	0.017	0.0005	112454	11.1509	-0.0498294	0	287.863	1	1.15469e-42	6.30226e-43	0	7.51585e-31
2	1542	2474	-0.0242184	0.012	0.0005	112411	11.1565	0.0293753	0	287.857	1	1.90151e-42	1.03784e-42	0	8.06213e-30
2	1543	2472	-0.0225751	0.0127194	0.0005	112362	11.613	0.0460842	0	287.727	1	8.00085e-40	4.36683e-40	0	4.79597e-27
2	1544	2497	-0.0223462	0.013431	0.0005	112372	11.7297	-0.0112344	0	287.726	1	5.40824e-41	2.9518e-41	0	2.69021e-28
2	1545	2522	-0.0223461	0.0141431	0.0005	112384	11.7075	-0.0316365	0	287.727	1	2.82453e-42	1.54161e-42	0	6.98717e-30