# vtk DataFile Version 2.0
sampleSurface
ASCII
DATASET POLYDATA
POINTS 16001 float
0 0 0.0005 0 0.001 0.0005 0.001 0 0.0005 -0.001 0
0.0005 0.001 0.001 0.0005 -0.001 0.001 0.0005 0.002 0 0.0005
0 0.002 0.0005 -0.002 0 0.0005 0.002 0.001 0.0005 0.001
0.002 0.0005 -0.002 0.001 0.0005 -0.001 0.002 0.0005 0.002 0.002
0.0005 -0.002 0.002 0.0005 0.003 0 0.0005 0 0.003 0.0005
-0.003 0 0.0005 0.003 0.001 0.0005 0.001 0.003 0.0005 -0.003
0.001 0.0005 -0.001 0.003 0.0005 0.003 0.002 0.0005 0.002 0.003
0.0005 -0.003 0.002 0.0005 -0.002 0.003 0.0005 0.004 0 0.0005
0 0.004 0.0005 -0.004 0 0.0005 0.004 0.001 0.0005 0.001
0.004 0.0005 -0.004 0.001 0.0005 -0.001 0.004 0.0005 0.003 0.003
0.0005 -0.003 0.003 0.0005 0.004 0.002 0.0005 0.002 0.004 0.0005
-0.004 0.002 0.0005 -0.002 0.004 0.0005 0.004 0.003 0.0005 0.003
0.004 0.0005 -0.004 0.003 0.0005 -0.003 0.004 0.0005 0.005 0
0.0005 0 0.005 0.0005 -0.005 0 0.0005 0.005 0.001 0.0005
0.001 0.005 0.0005 -0.005 0.001 0.0005 -0.001 0.005 0.0005 0.005
0.002 0.0005 0.002 0.005 0.0005 -0.005 0.002 0.0005 -0.002 0.005
0.0005 0.004 0.004 0.0005 -0.004 0.004 0.0005 0.005 0.003 0.0005
0.003 0.005 0.0005 -0.005 0.003 0.0005 -0.003 0.005 0.0005 0.006
0 0.0005 0 0.006 0.0005 -0.006 0 0.0005 0.006 0.001
0.0005 0.001 0.006 0.0005 -0.006 0.001 0.0005 -0.001 0.006 0.0005
0.006 0.002 0.0005 0.002 0.006 0.0005 -0.006 0.002 0.0005 -0.002
0.006 0.0005 0.005 0.004 0.0005 0.004 0.005 0.0005 -0.005 0.004
0.0005 -0.004 0.005 0.0005 0.006 0.003 0.0005 0.003 0.006 0.0005
-0.006 0.003 0.0005 -0.003 0.006 0.0005 0.007 0 0.0005 0
0.007 0.0005 -0.007 0 0.0005 0.007 0.001 0.0005 0.005 0.005
0.0005 0.001 0.007 0.0005 -0.007 0.001 0.0005 -0.005 0.005 0.0005
-0.001 0.007 0.0005 0.006 0.004 0.0005 0.004 0.006 0.0005 -0.006
0.004 0.0005 -0.004 0.006 0.0005 0.007 0.002 0.0005 0.002 0.007
0.0005 -0.007 0.002 0.0005 -0.002 0.007 0.0005 0.007 0.003 0.0005
0.003 0.007 0.0005 -0.007 0.003 0.0005 -0.003 0.007 0.0005 0.006
0.005 0.0005 0.005 0.006 0.0005 -0.006 0.005 0.0005 -0.005 0.006
0.0005 0.008 0 0.0005 0 0.008 0.0005 -0.008 0 0.0005
0.008 0.001 0.0005 0.001 0.008 0.0005 -0.008 0.001 0.0005 -0.001
0.008 0.0005 0.007 0.004 0.0005 0.004 0.007 0.0005 -0.007 0.004
0.0005 -0.004 0.007 0.0005 0.008 0.002 0.0005 0.002 0.008 0.0005
-0.008 0.002 0.0005 -0.002 0.008 0.0005 0.006 0.006 0.0005 -0.006
0.006 0.0005 0.008 0.003 0.0005 0.003 0.008 0.0005 -0.008 0.003
0.0005 -0.003 0.008 0.0005 0.007 0.005 0.0005 0.005 0.007 0.0005
-0.007 0.005 0.0005 -0.005 0.007 0.0005 0.008 0.004 0.0005 0.004
0.008 0.0005 -0.008 0.004 0.0005 -0.004 0.008 0.0005 0.009 0
0.0005 0 0.009 0.0005 -0.009 0 0.0005 0.009 0.001 0.0005
0.001 0.009 0.0005 -0.009 0.001 0.0005 -0.001 0.009 0.0005 0.009
0.002 0.0005 0.002 0.009 0.0005 -0.009 0.002 0.0005 -0.002 0.009
0.0005 0.007 0.006 0.0005 0.006 0.007 0.0005 -0.007 0.006 0.0005
-0.006 0.007 0.0005 0.008 0.005 0.0005 0.005 0.008 0.0005 -0.008
0.005 0.0005 -0.005 0.008 0.0005 0.009 0.003 0.0005 0.003 0.009
0.0005 -0.009 0.003 0.0005 -0.003 0.009 0.0005 0.009 0.004 0.0005
0.004 0.009 0.0005 -0.009 0.004 0.0005 -0.004 0.009 0.0005 0.007
0.007 0.0005 -0.007 0.007 0.0005 0.008 0.006 0.0005 0.006 0.008
0.0005 -0.008 0.006 0.0005 -0.006 0.008 0.0005 0.01 0 0.0005
0 0.01 0.0005 -0.01 0 0.0005 0.01 0.001 0.0005 0.001
0.01 0.0005 -0.01 0.001 0.0005 -0.001 0.01 0.0005 0.01 0.002
0.0005 0.002 0.01 0.0005 -0.01 0.002 0.0005 -0.002 0.01 0.0005
0.009 0.005 0.0005 0.005 0.009 0.0005 -0.009 0.005 0.0005 -0.005
0.009 0.0005 0.01 0.003 0.0005 0.003 0.01 0.0005 -0.01 0.003
0.0005 -0.003 0.01 0.0005 0.008 0.007 0.0005 0.007 0.008 0.0005
-0.008 0.007 0.0005 -0.007 0.008 0.0005 0.01 0.004 0.0005 0.004
0.01 0.0005 -0.01 0.004 0.0005 -0.004 0.01 0.0005 0.009 0.006
0.0005 0.006 0.009 0.0005 -0.009 0.006 0.0005 -0.006 0.009 0.0005
0.011 0 0.0005 0 0.011 0.0005 -0.011 0 0.0005 0.011
0.001 0.0005 0.001 0.011 0.0005 -0.011 0.001 0.0005 -0.001 0.011
0.0005 0.011 0.002 0.0005 0.002 0.011 0.0005 -0.011 0.002 0.0005
-0.002 0.011 0.0005 0.01 0.005 0.0005 0.005 0.01 0.0005 -0.01
0.005 0.0005 -0.005 0.01 0.0005 0.008 0.008 0.0005 -0.008 0.008
0.0005 0.011 0.003 0.0005 0.009 0.007 0.0005 0.007 0.009 0.0005
0.003 0.011 0.0005 -0.011 0.003 0.0005 -0.009 0.007 0.0005 -0.007
0.009 0.0005 -0.003 0.011 0.0005 0.01 0.006 0.0005 0.006 0.01
0.0005 -0.01 0.006 0.0005 -0.006 0.01 0.0005 0.011 0.004 0.0005
0.004 0.011 0.0005 -0.011 0.004 0.0005 -0.004 0.011 0.0005 0.012
0 0.0005 0 0.012 0.0005 -0.012 0 0.0005 0.012 0.001
0.0005 0.009 0.008 0.0005 0.008 0.009 0.0005 0.001 0.012 0.0005
-0.012 0.001 0.0005 -0.009 0.008 0.0005 -0.008 0.009 0.0005 -0.001
0.012 0.0005 0.011 0.005 0.0005 0.005 0.011 0.0005 -0.011 0.005
0.0005 -0.005 0.011 0.0005 0.012 0.002 0.0005 0.002 0.012 0.0005
-0.012 0.002 0.0005 -0.002 0.012 0.0005 0.01 0.007 0.0005 0.007
0.01 0.0005 -0.01 0.007 0.0005 -0.007 0.01 0.0005 0.012 0.003
0.0005 0.003 0.012 0.0005 -0.012 0.003 0.0005 -0.003 0.012 0.0005
0.011 0.006 0.0005 0.006 0.011 0.0005 -0.011 0.006 0.0005 -0.006
0.011 0.0005 0.012 0.004 0.0005 0.004 0.012 0.0005 -0.012 0.004
0.0005 -0.004 0.012 0.0005 0.009 0.009 0.0005 -0.009 0.009 0.0005
0.01 0.008 0.0005 0.008 0.01 0.0005 -0.01 0.008 0.0005 -0.008
0.01 0.0005 0.013 0 0.0005 0 0.013 0.0005 -0.013 0
0.0005 0.012 0.005 0.0005 0.005 0.012 0.0005 -0.012 0.005 0.0005
-0.005 0.012 0.0005 0.013 0.001 0.0005 0.011 0.007 0.0005 0.007
0.011 0.0005 0.001 0.013 0.0005 -0.013 0.001 0.0005 -0.011 0.007
0.0005 -0.007 0.011 0.0005 -0.001 0.013 0.0005 0.013 0.002 0.0005
0.002 0.013 0.0005 -0.013 0.002 0.0005 -0.002 0.013 0.0005 0.013
0.003 0.0005 0.003 0.013 0.0005 -0.013 0.003 0.0005 -0.003 0.013
0.0005 0.012 0.006 0.0005 0.006 0.012 0.0005 -0.012 0.006 0.0005
-0.006 0.012 0.0005 0.01 0.009 0.0005 0.009 0.01 0.0005 -0.01
0.009 0.0005 -0.009 0.01 0.0005 0.013 0.004 0.0005 0.011 0.008
0.0005 0.008 0.011 0.0005 0.004 0.013 0.0005 -0.013 0.004 0.0005
-0.011 0.008 0.0005 -0.008 0.011 0.0005 -0.004 0.013 0.0005 0.012
0.007 0.0005 0.007 0.012 0.0005 -0.012 0.007 0.0005 -0.007 0.012
0.0005 0.013 0.005 0.0005 0.005 0.013 0.0005 -0.013 0.005 0.0005
-0.005 0.013 0.0005 0.014 0 0.0005 0 0.014 0.0005 -0.014
0 0.0005 0.014 0.001 0.0005 0.001 0.014 0.0005 -0.014 0.001
0.0005 -0.001 0.014 0.0005 0.014 0.002 0.0005 0.01 0.01 0.0005
0.002 0.014 0.0005 -0.014 0.002 0.0005 -0.01 0.01 0.0005 -0.002
0.014 0.0005 0.011 0.009 0.0005 0.009 0.011 0.0005 -0.011 0.009
0.0005 -0.009 0.011 0.0005 0.013 0.006 0.0005 0.006 0.013 0.0005
-0.013 0.006 0.0005 -0.006 0.013 0.0005 0.014 0.003 0.0005 0.003
0.014 0.0005 -0.014 0.003 0.0005 -0.003 0.014 0.0005 0.012 0.008
0.0005 0.008 0.012 0.0005 -0.012 0.008 0.0005 -0.008 0.012 0.0005
0.014 0.004 0.0005 0.004 0.014 0.0005 -0.014 0.004 0.0005 -0.004
0.014 0.0005 0.013 0.007 0.0005 0.007 0.013 0.0005 -0.013 0.007
0.0005 -0.007 0.013 0.0005 0.011 0.01 0.0005 0.01 0.011 0.0005
-0.011 0.01 0.0005 -0.01 0.011 0.0005 0.014 0.005 0.0005 0.005
0.014 0.0005 -0.014 0.005 0.0005 -0.005 0.014 0.0005 0.015 0
0.0005 0.012 0.009 0.0005 0.009 0.012 0.0005 0 0.015 0.0005
-0.015 0 0.0005 -0.012 0.009 0.0005 -0.009 0.012 0.0005 0.015
0.001 0.0005 0.001 0.015 0.0005 -0.015 0.001 0.0005 -0.001 0.015
0.0005 0.015 0.002 0.0005 0.002 0.015 0.0005 -0.015 0.002 0.0005
-0.002 0.015 0.0005 0.014 0.006 0.0005 0.006 0.014 0.0005 -0.014
0.006 0.0005 -0.006 0.014 0.0005 0.013 0.008 0.0005 0.008 0.013
0.0005 -0.013 0.008 0.0005 -0.008 0.013 0.0005 0.015 0.003 0.0005
0.003 0.015 0.0005 -0.015 0.003 0.0005 -0.003 0.015 0.0005 0.015
0.004 0.0005 0.004 0.015 0.0005 -0.015 0.004 0.0005 -0.004 0.015
0.0005 0.011 0.011 0.0005 -0.011 0.011 0.0005 0.012 0.01 0.0005
0.01 0.012 0.0005 -0.012 0.01 0.0005 -0.01 0.012 0.0005 0.014
0.007 0.0005 0.007 0.014 0.0005 -0.014 0.007 0.0005 -0.007 0.014
0.0005 0.015 0.005 0.0005 0.013 0.009 0.0005 0.009 0.013 0.0005
0.005 0.015 0.0005 -0.015 0.005 0.0005 -0.013 0.009 0.0005 -0.009
0.013 0.0005 -0.005 0.015 0.0005 0.016 0 0.0005 0 0.016
0.0005 -0.016 0 0.0005 0.016 0.001 0.0005 0.001 0.016 0.0005
-0.016 0.001 0.0005 -0.001 0.016 0.0005 0.016 0.002 0.0005 0.002
0.016 0.0005 -0.016 0.002 0.0005 -0.002 0.016 0.0005 0.014 0.008
0.0005 0.008 0.014 0.0005 -0.014 0.008 0.0005 -0.008 0.014 0.0005
0.015 0.006 0.0005 0.006 0.015 0.0005 -0.015 0.006 0.0005 -0.006
0.015 0.0005 0.016 0.003 0.0005 0.012 0.011 0.0005 0.011 0.012
0.0005 0.003 0.016 0.0005 -0.016 0.003 0.0005 -0.012 0.011 0.0005
-0.011 0.012 0.0005 -0.003 0.016 0.0005 0.013 0.01 0.0005 0.01
0.013 0.0005 -0.013 0.01 0.0005 -0.01 0.013 0.0005 0.016 0.004
0.0005 0.004 0.016 0.0005 -0.016 0.004 0.0005 -0.004 0.016 0.0005
0.015 0.007 0.0005 0.007 0.015 0.0005 -0.015 0.007 0.0005 -0.007
0.015 0.0005 0.014 0.009 0.0005 0.009 0.014 0.0005 -0.014 0.009
0.0005 -0.009 0.014 0.0005 0.016 0.005 0.0005 0.005 0.016 0.0005
-0.016 0.005 0.0005 -0.005 0.016 0.0005 0.012 0.012 0.0005 -0.012
0.012 0.0005 0.015 0.008 0.0005 0.008 0.015 0.0005 -0.015 0.008
0.0005 -0.008 0.015 0.0005 0.017 0 0.0005 0 0.017 0.0005
-0.017 0 0.0005 0.013 0.011 0.0005 0.011 0.013 0.0005 -0.013
0.011 0.0005 -0.011 0.013 0.0005 0.017 0.001 0.0005 0.001 0.017
0.0005 -0.017 0.001 0.0005 -0.001 0.017 0.0005 0.016 0.006 0.0005
0.006 0.016 0.0005 -0.016 0.006 0.0005 -0.006 0.016 0.0005 0.017
0.002 0.0005 0.002 0.017 0.0005 -0.017 0.002 0.0005 -0.002 0.017
0.0005 0.014 0.01 0.0005 0.01 0.014 0.0005 -0.014 0.01 0.0005
-0.01 0.014 0.0005 0.017 0.003 0.0005 0.003 0.017 0.0005 -0.017
0.003 0.0005 -0.003 0.017 0.0005 0.016 0.007 0.0005 0.007 0.016
0.0005 -0.016 0.007 0.0005 -0.007 0.016 0.0005 0.017 0.004 0.0005
0.004 0.017 0.0005 -0.017 0.004 0.0005 -0.004 0.017 0.0005 0.015
0.009 0.0005 0.009 0.015 0.0005 -0.015 0.009 0.0005 -0.009 0.015
0.0005 0.013 0.012 0.0005 0.012 0.013 0.0005 -0.012 0.013 0.0005
-0.013 0.012 0.0005 0.017 0.005 0.0005 0.005 0.017 0.0005 -0.017
0.005 0.0005 -0.005 0.017 0.0005 0.014 0.011 0.0005 0.011 0.014
0.0005 -0.014 0.011 0.0005 -0.011 0.014 0.0005 0.016 0.008 0.0005
0.008 0.016 0.0005 -0.016 0.008 0.0005 -0.008 0.016 0.0005 0.018
[...]
POINT_DATA 16001
FIELD attributes 17
p 1 16001 float
103414 103416 103476 103345 103477 103348 103530 103422 103272 103530 103480
103276 103358 103530 103290 103575 103432 103202 103574 103485 103208
103374 103573 103531 103223 103310 103614 103447 103146 103612 103493
103151 103395 103569 103246 103607 103532 103166 103337 103599 103565
103187 103274 103649 103466 103107 103645 103506 103112 103422 103636
103536 103123 103367 103588 103211 103620 103559 103138 103305 103680
103493 103088 103673 103525 103090 103454 103659 103541 103097 103402
103602 103573 103154 103236 103634 103551 103103 103338 103708 103525
103077 103700 103578 103550 103078 103167 103491 103609 103557 103106
103261 103679 103555 103078 103438 103647 103552 103075 103372 103579
103556 103105 103179 103733 103564 103063 103723 103581 103062 103532
103615 103551 103066 103287 103698 103565 103057 103477 103558 103100
103659 103550 103047 103407 103584 103543 103051 103191 103623 103551
103029 103314 103754 103583 103031 103742 103594 103029 103567 103715
103578 103021 103511 103565 103542 103030 103095 103590 103542 103004
103205 103673 103563 103008 103441 103633 103578 102986 103340 103552
103009 103574 103543 102973 103092 103768 103635 102975 103757 103627
102973 103599 103730 103555 102965 103541 103597 103558 102958 103220
103687 103532 102952 103467 103563 103551 102943 102992 103644 103569
102933 103360 103583 103550 102926 103093 103776 103234 102898 103765
103423 102896 103616 103740 103468 102890 103559 103604 103563 102910
103231 103568 102916 103700 103581 103562 103412 102882 102895 102980
103478 103592 103557 102885 103095 103658 103500 102870 103369 103779
103246 102811 103770 103601 103584 103367 102810 102868 102897 103822
103622 103569 102858 103236 103746 103520 102808 104086 103603 103577
102861 102974 103711 103445 102806 104299 103613 103593 102846 103097
103670 103539 102804 104520 103624 102848 103633 103599 102843 102886
103780 103692 102727 103641 103617 102805 104740 103772 103638 103615
103670 102727 102836 102972 103926 103752 103678 102729 104120 103724
103608 102734 104317 103634 103647 102808 104951 103657 103638 102830
102837 103692 103670 103635 103664 102742 102830 102882 104522 103649
103662 102813 105137 103675 103692 102755 104739 103783 103886 102659
103777 103829 102660 104032 103761 103667 103793 102665 102823 104160
103675 103669 102827 102834 103675 103709 102771 104949 103743 103745
102676 104330 103683 103675 102820 105287 103718 103771 102692 104517
103681 103713 102789 105137 103688 103654 102826 102821 103717 103764
102713 104730 103789 103673 103702 103939 102610 102827 105400 103785
103886 102613 104063 103772 103864 102621 104182 103725 103767 102738
104941 103682 103716 102806 105288 103762 103835 102635 104333 103745
103839 102656 104510 103702 102826 103654 103687 102833 105483 103750
103764 102763 105134 103758 103664 103735 103820 102682 102820 105401
104717 103798 104005 102580 103797 103955 102583 104104 103786 103926
102593 104209 103736 103758 102784 105289 103777 103814 102710 104931
103781 103706 103737 103899 102610 102835 105549 104342 103657 103750
102829 105483 103767 103897 102633 104508 103843 103808 102735 105129
103701 103760 102800 105402 103776 103873 102660 104709 103758 105608
103861 103803 102754 105289 103809 103939 102563 103689 103769 102831
105547 103806 103920 102567 104115 103775 103865 102686 104923 103795
103913 102577 104219 103719 103771 102809 105482 103789 103918 102595
104343 103861 103852 102706 105126 103776 103926 102618 104506 103777
103791 102766 105404 103736 103757 105606 105670 103780 103904 102643
104705 103735 103780 102811 105543 103846 103838 102719 105289 103818
103849 102556 103814 103747 103792 103887 102559 102772 103860 105481
103761 103902 102664 104920 103806 103902 102570 103811 103801 103941
102586 103773 103744 103827 102723 105405 103757 105668 103744 103886
102677 105124 103801 103958 102607 103749 103759 103764 105739 105600
103747 103801 102773 105539 103815 103944 102628 103742 103698 103866
102680 105289 103761 103818 102723 105481 103815 103933 102642 103751
103830 103880 102557 103825 103896 102560 103841 103821 103776 103777
103917 102568 103798 105739 105663 103767 103784 105820 105593 103817
103699 103854 103956 102581 102676 103766 105405 103760 103919 102647
103771 103758 103819 102722 105536 103821 103976 102595 103745 103828
103966 102608 103741 103724 103894 102641 103799 103751 103848 102669
105481 103797 105737 103785 103789 105822 105656 103836 103951 102615
103752 103780 103799 105910 105587 103837 103855 102569 103833 103879
102570 103823 103833 103905 102572 103785 103752 103879 102629 103828
103827 103937 102577 103757 103827 103751 103841 103936 102613 102666
103774 105534 103829 103955 102581 103741 103801 103806 105826 105734
103767 103868 102618 103856 103783 103797 103795 103907 102602 103802
105914 105650 103824 103950 102584 103741 103777 103815 106004 105585
103855 103941 102582 103755 103848 103834 102589 103772 103890 102587
103831 103845 103863 102587 103800 103772 103847 102613 103880 103852
103889 102582 103765 103840 103926 102575 103779 103811 105830 103846
103913 102575 103741 103811 103806 105925 105731 103848 103921 102566
103731 103793 103804 106011 105648 103782 103880 102575 103859 103777
103903 102564 103809 103820 103914 102557 103737 103789 103826 103899
106092 103851 103904 102546 103757 103786 103818 103812 103886 102551
103839 105939 105834 103783 103857 102570 103882 103856 103795 102609
103853 103822 102605 103767 103809 103809 106027 105730 103859 103848
102593 103738 103826 103891 102536 103786 103851 103799 103813 103866
102574 103915 103720 106099 103836 103871 102552 103716 103795 103878
102542 103866 103770 103794 103836 103877 102528 103898 103819 106170
103803 103864 102530 103730 103821 105949 103819 103817 106047 105835
103770 103812 103813 103856 102512 103935 103758 106117 103800 103861
102538 103885 103807 103868 102522 103849 103865 103752 102624 103862
103800 103826 103775 102618 103912 103735 106175 103867 103748 103847
103802 102600 102500 103792 103711 103859 103817 102573 103698 103808
103862 102518 103874 103809 103841 103896 106235 103849 103820 102541
103701 103824 103825 106063 105953 103773 103841 102495 103828 103820
103819 103962 106138 103835 103812 102511 103722 103811 103822 103928
106187 103817 103853 102516 103889 103790 103815 103839 103803 102486
102496 103859 103756 103815 103836 103902 106237 103878 103695 102617
103874 103711 102611 103695 103778 103796 102473 103796 103829 106069
103879 103824 103825 103741 102594 103995 103684 106155 103821 103841
102499 103882 103870 103823 103844 103758 102567 103893 103677 106296
103821 103823 103953 106203 103881 103760 102534 103687 103816 103797
102470 103834 103824 103838 103910 106242 103882 103751 102502 103714
103832 103842 102499 103892 103836 103804 102476 103866 103833 103846
103889 106295 103860 103740 102474 103753 103830 103833 104026 106161
103829 103833 103984 106215 103844 103832 103840 103734 102458 103926
103797 106248 103888 103608 102605 103883 103637 102600 103680 103840
103842 103888 106358 103844 103816 102483 103887 103882 103677 102585
103676 103872 103699 102561 103671 103844 103853 103884 106293 103843
103740 102452 103838 103884 103701 102530 103683 103839 104044 103851
103836 103845 103828 102484 104015 103894 106220 103892 103688 102498
103710 103848 103849 103874 106356 103838 103846 103951 106252 103859
103756 102456 103870 103870 103673 102471 103752 103851 103858 103889
106290 103857 103838 103884 106415 103850 103664 102452 103797 103903
103593 103856 103780 102461 103890 103895 103614 103888 103856 103856
103645 103858 106350 103877 103843 103855 103660 104035 104042 103841
103858 103982 106253 103855 103671 102444 103839 103887 103658 103862
103860 103862 103806 102462 103907 103894 106287 103860 103849 103861
106414 103893 103639 103874 103694 102444 103871 103863 103866 103851
106343 103871 103615 103873 103829 103880 106457 103857 104037 103849
103869 104021 104007 103850 103862 103859 103599 103835 106410 103874
103729 102447 103891 103913 103599 103898 103607 103876 103868 103936
106285 103880 103620 103868 103627 103856 103865 103874 103601 103862
106337 103871 103620 103870 103849 103852 106458 103875 103769 102447
103894 103866 103865 103871 103599 103819 106405 103877 103625 103855
103874 104021 104019 103836 103572 103886 103878 103992 103969 103883
103807 103878 106472 103863 103865 103820 106458 103876 103877 103890
106334 103891 103667 103818 103550 103921 103582 103867 103883 103824
106401 103900 103589 103872 103598 103835 103546 103859 103604 103874
103840 103849 106474 103891 103720 103855 103872 103599 104017 103850
103880 103799 106458 103869 103886 103997 103995 103890 103884 103967
103930 103845 103579 103875 103565 103867 103890 103851 106399 103890
103773 103795 103551 103865 103866 103815 106477 103899 103609 103852
103894 103799 106458 103773 103525 103921 103875 103896 103600 104007
104012 103897 103602 103882 103884 103892 103820 103977 103971 103865
103607 103813 103513 103893 103669 103858 103847 103885 103611 103791
106479 103882 103899 103952 103897 103865 103606 103847 103878 103907
103526 103826 106458 103848 103588 103876 103857 103890 103733 103805
103560 103837 103903 103790 106482 103901 104022 103885 103901 103998
104008 103875 103566 103899 103908 103965 103952 103788 103531 103881
103792 103918 103901 103919 103626 103950 103876 103876 103886 103895
103626 103861 103629 103808 103882 103625 103513 103854 103633 103854
103920 103817 106482 103873 103631 103814 103517 103870 103872 103841
103618 103898 103908 104028 104038 103874 103693 103896 103917 103994
104006 103864 103910 103831 103595 103907 103929 103964 103939 103835
103547 103820 103567 103873 103935 103954 103868 103860 103759 103872
103880 103912 103666 103893 103666 103861 103599 103829 103546 103865
103846 103932 103669 103905 104061 103860 103896 103924 103673 104035
104052 103896 103935 103997 104004 103890 103672 103850 103817 103821
103541 103863 103858 103913 103662 103898 103663 103881 103947 103968
103934 103861 103645 103834 103842 103951 103559 103842 103864 103838
103854 103726 103622 103895 103916 104079 104089 103888 103936 104043
104062 103836 103939 103844 103597 103891 103704 103877 103830 103601
103705 103873 103952 104001 104003 103856 103706 103854 103708 103848
103962 103841 103783 103907 103707 103834 103901 103817 103590 103850
103646 103894 103699 103823 103956 103896 104117 103851 103877 103923
103684 104093 104109 103826 103597 103831 103863 103946 103830 104048
104065 103850 103698 103844 103666 103818 103926 103841 103962 103825
103618 103833 103648 103864 103738 103818 103964 103852 103738 103838
103737 103837 103746 103823 103865 103837 103736 103821 103824 103649
103636 103881 103869 103895 103731 104136 104143 103798 103941 103849
103924 104099 104114 103882 103721 103831 103948 103806 103634 103827
103787 103839 103707 103807 103959 103828 103684 103810 103890 103808
103691 103800 103641 103783 103945 103858 104165 103805 103674 103833
103888 104143 104150 103818 103819 103842 103749 103831 103825 103717
103748 103814 103918 103819 103745 103821 103786 103905 103741 103794
103657 103808 103796 103940 103660 103841 103734 103853 103722 103768
103938 103819 103746 103807 103841 103791 103652 103858 103707 103793
103675 103813 103844 104173 104173 103758 103908 103791 103877 103871
103691 103779 103651 103776 103907 103804 103769 103799 103692 103839
103674 103779 103852 103828 103755 103917 103743 103822 103741 103817
103738 103768 103656 103817 103732 103809 103660 103821 103733 103899
103723 103800 103707 103787 103783 103812 103793 103710 104181 103762
103828 103796 103650 103764 103746 103864 103662 103739 103852 103823
103694 103734 103884 103870 103677 103756 103646 103779 103719 103713
103878 103762 103788 103771 103669 103843 103661 103812 103721 103813
103719 103820 103701 103842 103715 103743 103646 103736 103774 103823
103709 103710 103813 103799 103646 103815 103700 103752 103703 103840
103724 103774 103674 103797 103687 103726 103784 103692 103846 103784
103737 103647 103636 103781 103672 103673 103820 103757 103656 103756
103675 103746 103631 103733 103721 103716 103743 103649 103680 103758
103737 103641 103665 103789 103680 103771 103788 103701 103733 103630
103794 103700 103665 103804 103809 103696 103725 103628 103816 103689
103729 103671 103746 103648 103651 103790 103805 103680 103709 103712
103773 103668 103728 103632 103728 103618 103640 103750 103736 103654
103657 103700 103630 103734 103731 103643 103708 103661 103745 103615
103628 103755 103698 103640 103727 103634 103664 103696 103629 103751
103683 103627 103767 103617 103776 103692 103782 103611 103722 103690
103708 103633 103795 103685 103689 103615 103712 103690 103647 103633
103803 103677 103639 103788 103601 103677 103668 103766 103622 103613
103676 103588 103701 103711 103609 103750 103657 103596 103706 103719
103686 103618 103644 103700 103627 103648 103629 103732 103608 103589
103689 103741 103627 103692 103631 103570 103652 103682 103620 103761
103613 103576 103614 103686 103614 103668 103550 103643 103599 103720
103630 103783 103701 103784 103698 103691 103612 103782 103554 103656
103691 103772 103681 103589 103610 103756 103560 103651 103670 103768
103622 103719 103608 103737 103658 103661 103596 103702 103626 103542
103627 103632 103580 103727 103645 103742 103633 103728 103611 103547
103712 103514 103580 103634 103531 103592 103505 103600 103679 103615
103701 103624 103642 103520 103608 103576 103728 103620 103737 103640
103569 103563 103515 103599 103805 103721 103796 103718 103694 103619
103772 103707 103738 103694 103730 103634 103720 103680 103491 103574
103646 103599 103706 103619 103722 103641 103712 103609 103477 103511
103557 103667 103458 103538 103719 103653 103466 103559 103712 103498
103549 103649 103719 103626 103717 103479 103566 103642 103625 103579
103681 103633 103705 103635 103718 103639 103462 103556 103548 103541
103706 103660 103699 103633 103822 103746 103806 103437 103741 103411
103470 103442 103537 103767 103729 103411 103504 103719 103714 103656
103713 103644 103619 103590 103560 103690 103696 103698 103429 103528
103663 103698 103637 103684 103681 103469 103528 103431 103534 103692
103672 103697 103668 103693 103647 103604 103602 103708 103658 103404
103525 103675 103658 103527 103545 103366 103397 103696 103662 103355
103440 103710 103652 103677 103684 103370 103482 103402 103518 103699
103652 103817 103760 103801 103386 103505 103756 103650 103647 103756
103744 103561 103586 103710 103680 103702 103727 103664 103687 103447
103534 103668 103709 103663 103375 103509 103659 103659 103694 103701
103696 103325 103666 103682 103354 103507 103304 103371 103652 103671
103608 103634 103309 103426 103507 103573 103661 103683 103686 103674
103329 103468 103372 103522 103688 103705 103681 103685 103703 103671
103335 103486 103560 103624 103653 103674 103674 103673 103786 103761
103774 103757 103703 103700 103321 103490 103429 103563 103740 103747
103673 103706 103696 103732 103261 103301 103618 103680 103663 103717
103253 103362 103314 103508 103267 103419 103648 103704 103698 103711
103618 103667 103653 103695 103504 103284 103454 103616 103624 103689
103671 103701 103681 103349 103551 103690 103283 103468 103689 103715
103669 103699 103691 103689 103574 103276 103487 103663 103235 103662
103207 103294 103695 103421 103610 103652 103692 103210 103361 103687
103707 103744 103749 103736 103747 103671 103713 103717 103739 103224
103412 103687 103284 103534 103728 103597 103696 103668 103717 103234
103438 103700 103709 103662 103709 103621 103692 103508 103663 103597
103700 103662 103708 103657 103236 103460 103704 103332 103601 103643
103179 103228 103703 103681 103163 103298 103707 103639 103700 103240
103509 103169 103362 103639 103704 103577 103695 103414 103663 103653
103704 103177 103401 103627 103705 103646 103697 103648 103257 103585
103701 103712 103188 103429 103734 103706 103733 103695 103728 103679
103722 103591 103705 103676 103715 103514 103702 103616 103706 103659
103198 103478 103689 103171 103677 103316 103658 103711 103134 103237
103642 103697 103124 103307 103578 103700 103666 103710 103125 103358
103206 103559 103623 103655 103679 103711 103597 103132 103395 103689
103581 103713 103416 103707 103632 103696 103590 103712 103230 103646
103150 103444 103615 103639 103671 103673 103607 103710 103125 103184
103698 103724 103692 103096 103255 103724 103682 103164 103526 103721
103531 103724 103667 103600 103704 103718 103616 103083 103313 103702
103306 103707 103649 103622 103655 103715 103081 103356 103648 103668
103658 103713 103593 103690 103172 103624 103654 103713 103095 103408
103624 103638 103596 103713 103613 103713 103437 103732 103603 103670
103652 103671 103121 103488 103208 103699 103140 103585 103710 103089
103209 103060 103273 103622 103628 103613 103645 103044 103320 103555
103704 103131 103591 103556 103725 103686 103726 103656 103046 103370
103681 103678 103327 103734 103726 103664 103726 103557 103692 103655
103724 103630 103619 103651 103626 103626 103721 103142 103682 103071
103446 103666 103718 103589 103674 103661 103714 103104 103170 103473
103732 103646 103694 103055 103239 103624 103096 103551 103598 103024
103289 103224 103728 103610 103709 103593 103629 103633 103649 103010
103335 103559 103702 103100 103653 103612 103587 103589 103621 103024
103402 103493 103598 103705 103690 103364 103732 103629 103646 103670
103738 103664 103054 103504 103738 103151 103714 103650 103738 103507
103675 103600 103594 103138 103653 103737 103605 103073 103208 103586
103675 103023 103265 103732 103672 103072 103614 103725 102992 103308
103554 103655 103508 103709 103627 103660 103652 103261 103725 103716
103610 103573 102987 103363 103599 103595 103621 103553 103632 103703
103108 103691 103012 103451 103560 103689 103614 103563 103607 103669
103564 103402 103705 103608 103107 103180 103042 103564 103521 103041
103244 103673 103599 103608 103189 103714 102992 103290 103650 103752
103644 103752 103521 103656 103577 103613 102968 103333 103562 103587
103632 103753 103631 103076 103656 103751 103646 103744 103549 103670
102976 103400 103299 103696 103535 103594 103621 103638 103648 103733
103591 103571 103638 103717 103615 103570 103141 103697 103007 103505
103551 103621 103625 103150 103699 103075 103220 103009 103272 103473
103663 103605 103600 103046 103608 103562 103679 103581 103629 102965
103312 103560 103607 103214 103686 103619 103580 102954 103359 103578
103659 103097 103670 103604 103561 103569 102973 103441 103595 103621
103757 103560 103642 103616 103758 103607 103759 103544 103627 103605
103757 103382 103653 103611 103588 103614 103749 103117 103191 103562
103013 103546 103627 103162 103675 103040 103250 103636 103736 103576
103586 103602 102979 103292 103565 103655 103718 102947 103328 103566
103617 103059 103629 103645 103697 103498 103618 103592 103592 103580
103581 103286 102950 103384 103645 103621 103675 103564 103601 103568
103611 103132 103659 102980 103477 103595 103654 103157 103586 103580
103080 103222 103563 103608 103561 103006 103270 103588 103574 103636
103599 103437 103608 103596 103594 103025 103573 103604 103569 103595
102954 103303 103221 103640 103604 103563 103623 102938 103342 103620
103563 103607 103599 103578 103098 103632 103636 102955 103412 103559
103616 103520 103580 103629 103604 103369 103603 103567 103565 103607
102992 103508 103610 103612 103179 103119 103188 103634 103571 103553
103043 103241 103614 102976 103276 103591 102939 103311 103058 103589
103569 103604 103466 103573 103595 103561 103546 103615 103568 103302
103603 103579 103620 103562 103579 102939 103363 103580 103582 103591
103136 103622 103549 102967 103446 103540 103591 103597 103617 103605
103150 103566 103555 103614 103081 103206 103413 103571 103543 103619