#           y             T         TMean   TPrime2Mean           U_x           U_y           U_z       UMean_x       UMean_y       UMean_z UPrime2Mea... UPrime2Mea... UPrime2Mea... UPrime2Mea... UPrime2Mea... UPrime2Mea...            O2           H2O          C3H8             p         pMean   pPrime2Mean           CO2
         0.03       287.975       288.594      0.305584       2.45015      -18.7556             0       3.34285       2.04865             0       19.2939       1.34521             0       42.0607             0             0      0.198731   9.74088e-16      0.135953        101897        103199        239388   1.78471e-15
    0.0301702       287.977       288.592       0.30259       2.28259      -18.6585             0       3.32339       2.08537             0       19.4066       1.18282             0       41.9961             0             0      0.198714   9.74103e-16      0.136025        101899        103200        238864   1.78474e-15
    0.0303403       287.978        288.59      0.299596       2.11503      -18.5613             0       3.30394       2.12209             0       19.5194       1.02044             0       41.9314             0             0      0.198698   9.74118e-16      0.136096        101901        103200        238339   1.78477e-15
    0.0305105       287.979       288.588      0.296603       1.94747      -18.4642             0       3.28449       2.15881             0       19.6322      0.858063             0       41.8668             0             0      0.198681   9.74134e-16      0.136168        101903        103200        237815   1.78479e-15
    0.0306807       287.981       288.587      0.293609       1.77991       -18.367             0       3.26504       2.19553             0       19.7449      0.695682             0       41.8021             0             0      0.198665   9.74149e-16      0.136239        101905        103200        237290   1.78482e-15
    0.0308509       287.982       288.585      0.290615       1.61234      -18.2699             0       3.24559       2.23224             0       19.8577        0.5333             0       41.7375             0             0      0.198648   9.74164e-16      0.136311        101907        103201        236766   1.78485e-15
     0.031021       287.983       288.583      0.287765       1.44421      -18.1677             0       3.22857       2.26924             0       19.9924       0.37389             0       41.6622             0             0      0.198632   9.74186e-16      0.136382        101909        103201        236232   1.78489e-15
    0.0311912       287.984        288.58      0.285932         1.272        -18.03             0       3.22882       2.30825             0       20.2826      0.235556             0       41.5116             0             0      0.198616   9.74259e-16      0.136452        101911        103201        235628   1.78502e-15
    0.0313614       287.986       288.578      0.284099       1.09979      -17.8923             0       3.22907       2.34726             0       20.5729     0.0972218             0        41.361             0             0        0.1986   9.74331e-16      0.136522        101914        103202        235025   1.78516e-15
    0.0315315       287.987       288.576      0.282266      0.927587      -17.7545             0       3.22932       2.38626             0       20.8632    -0.0411122             0       41.2104             0             0      0.198584   9.74404e-16      0.136592        101916        103202        234421   1.78529e-15
    0.0317017       287.988       288.573      0.280433       0.75538      -17.6168             0       3.22957       2.42527             0       21.1535     -0.179446             0       41.0599             0             0      0.198568   9.74476e-16      0.136662        101918        103203        233817   1.78542e-15
    0.0318719       287.989       288.571      0.278599      0.583173      -17.4791             0       3.22982       2.46427             0       21.4437      -0.31778             0       40.9093             0             0      0.198552   9.74548e-16      0.136732        101921        103203        233214   1.78555e-15
     0.032042        287.99       288.568      0.277096       0.40947      -17.3355             0       3.23376       2.50317             0       21.7829     -0.440992             0        40.742             0             0      0.198539   9.74651e-16      0.136785        101923        103204        232602   1.78574e-15
    0.0322122        287.99       288.566      0.276599       0.23121       -17.174             0       3.24892       2.54172             0       22.2711     -0.518119             0       40.5241             0             0      0.198539   9.74848e-16      0.136786        101926        103204        231965    1.7861e-15
    0.0323824        287.99       288.563      0.276102     0.0529489      -17.0126             0       3.26409       2.58028             0       22.7593     -0.595245             0       40.3061             0             0      0.198539   9.75044e-16      0.136787        101928        103205        231329   1.78646e-15
    0.0325526        287.99       288.561      0.275605     -0.125312      -16.8512             0       3.27925       2.61883             0       23.2475     -0.672371             0       40.0882             0             0      0.198539    9.7524e-16      0.136788        101930        103206        230692   1.78682e-15
    0.0327227        287.99       288.558      0.275107     -0.303572      -16.6898             0       3.29442       2.65739             0       23.7357     -0.749498             0       39.8703             0             0      0.198538   9.75437e-16      0.136789        101933        103206        230055   1.78718e-15
    0.0328929        287.99       288.556       0.27461     -0.481833      -16.5283             0       3.30958       2.69594             0       24.2239     -0.826624             0       39.6523             0             0      0.198538   9.75633e-16       0.13679        101935        103207        229419   1.78754e-15
    0.0330631        287.99       288.553      0.274511     -0.660879      -16.3639             0       3.32752       2.73361             0       24.8172     -0.876072             0       39.4164             0             0      0.198542   9.75964e-16      0.136775        101938        103207        228780   1.78815e-15
    0.0332332       287.989       288.551      0.275088     -0.841258      -16.1942             0       3.35016       2.76978             0        25.589      -0.87851             0       39.1501             0             0      0.198552   9.76521e-16       0.13673        101941        103208        228135   1.78917e-15
    0.0334034       287.988       288.548      0.275664      -1.02164      -16.0245             0        3.3728       2.80595             0       26.3607     -0.880949             0       38.8837             0             0      0.198562   9.77079e-16      0.136686        101943        103209        227491   1.79019e-15
    0.0335736       287.987       288.546      0.276241      -1.20202      -15.8548             0       3.39545       2.84211             0       27.1325     -0.883387             0       38.6174             0             0      0.198572   9.77637e-16      0.136642        101946        103210        226847   1.79121e-15
    0.0337437       287.986       288.543      0.276818       -1.3824      -15.6852             0       3.41809       2.87828             0       27.9043     -0.885825             0        38.351             0             0      0.198582   9.78195e-16      0.136598        101948        103210        226203   1.79224e-15
    0.0339139       287.985       288.541      0.277395      -1.56278      -15.5155             0       3.44073       2.91445             0        28.676     -0.888264             0       38.0846             0             0      0.198592   9.78752e-16      0.136554        101951        103211        225558   1.79326e-15
    0.0340841       287.983       288.538      0.278292      -1.74127      -15.3476             0       3.46555       2.94837             0       29.5874     -0.854813             0       37.7955             0             0      0.198609   9.79462e-16      0.136481        101954        103212        224914   1.79456e-15
    0.0342543        287.98       288.536      0.279516      -1.91783      -15.1815             0       3.49258          2.98             0       30.6418     -0.784619             0       37.4832             0             0      0.198633   9.80329e-16      0.136379        101956        103213        224269   1.79615e-15
    0.0344244       287.978       288.534      0.280741       -2.0944      -15.0155             0       3.51962       3.01162             0       31.6961     -0.714425             0       37.1708             0             0      0.198657   9.81195e-16      0.136276        101959        103214        223625   1.79773e-15
    0.0345946       287.975       288.532      0.281966      -2.27096      -14.8494             0       3.54665       3.04325             0       32.7505     -0.644231             0       36.8585             0             0       0.19868   9.82061e-16      0.136173        101962        103215        222980   1.79932e-15
    0.0347648       287.972        288.53       0.28319      -2.44753      -14.6834             0       3.57368       3.07488             0       33.8049     -0.574037             0       36.5461             0             0      0.198704   9.82927e-16      0.136071        101965        103215        222336   1.80091e-15
    0.0349349       287.969       288.528      0.284415      -2.62409      -14.5173             0       3.60072        3.1065             0       34.8592     -0.503843             0       36.2337             0             0      0.198727   9.83793e-16      0.135968        101967        103216        221691   1.80249e-15
    0.0351051       287.965       288.526      0.285507      -2.79604      -14.3573             0       3.63081       3.13443             0       36.0004     -0.413345             0        35.892             0             0      0.198757   9.84857e-16      0.135838        101970        103217        221052   1.80444e-15
    0.0352753        287.96       288.525      0.286517      -2.96513      -14.2009             0        3.6628       3.16007             0       37.1953     -0.310277             0        35.532             0             0      0.198791   9.86042e-16      0.135691        101973        103218        220416   1.80661e-15
    0.0354454       287.955       288.523      0.287526      -3.13422      -14.0446             0       3.69478        3.1857             0       38.3902      -0.20721             0       35.1721             0             0      0.198825   9.87227e-16      0.135544        101976        103219        219780   1.80878e-15
    0.0356156        287.95       288.522      0.288536      -3.30331      -13.8882             0       3.72677       3.21134             0       39.5851     -0.104142             0       34.8121             0             0      0.198859   9.88412e-16      0.135397        101978        103220        219144   1.81096e-15
    0.0357858       287.945       288.521      0.289545      -3.47241      -13.7319             0       3.75876       3.23697             0       40.7801    -0.0010747             0       34.4522             0             0      0.198893   9.89597e-16       0.13525        101981        103221        218508   1.81313e-15
     0.035956       287.939       288.519      0.290555       -3.6415      -13.5756             0       3.79074       3.26261             0        41.975      0.101993             0       34.0922             0             0      0.198926   9.90782e-16      0.135103        101984        103222        217872    1.8153e-15
    0.0361261       287.932       288.519      0.290587      -3.80112      -13.4283             0        3.8261       3.28307             0       43.1613      0.184957             0       33.7076             0             0      0.198965   9.92619e-16      0.134936        101987        103224        217261   1.81866e-15
    0.0362963       287.924       288.519      0.290278      -3.95744      -13.2843             0       3.86262       3.30172             0       44.3446      0.260901             0       33.3143             0             0      0.199005   9.94684e-16      0.134761        101990        103225        216659   1.82245e-15
    0.0364665       287.916       288.518      0.289968      -4.11377      -13.1402             0       3.89915       3.32038             0        45.528      0.336844             0       32.9211             0             0      0.199045   9.96749e-16      0.134587        101993        103226        216056   1.82623e-15
    0.0366366       287.908       288.518      0.289659      -4.27009      -12.9962             0       3.93567       3.33903             0       46.7113      0.412788             0       32.5278             0             0      0.199085   9.98814e-16      0.134412        101995        103227        215454   1.83001e-15
    0.0368068       287.899       288.518       0.28935      -4.42641      -12.8522             0        3.9722       3.35768             0       47.8947      0.488732             0       32.1346             0             0      0.199125   1.00088e-15      0.134238        101998        103228        214852    1.8338e-15
     0.036977       287.891       288.517      0.289041      -4.58273      -12.7081             0       4.00873       3.37634             0        49.078      0.564676             0       31.7413             0             0      0.199165   1.00294e-15      0.134063        102001        103230        214249   1.83758e-15
    0.0371471       287.883       288.518       0.28703      -4.71957      -12.5701             0       4.04896       3.38683             0       50.1331      0.618687             0       31.3292             0             0        0.1992   1.00526e-15      0.133911        102004        103231        213692   1.84183e-15
    0.0373173       287.874       288.518      0.284754      -4.85337       -12.433             0       4.08976       3.39605             0       51.1681      0.669268             0       30.9142             0             0      0.199234   1.00762e-15      0.133763        102007        103232        213141   1.84616e-15
    0.0374875       287.866       288.518      0.282477      -4.98717      -12.2958             0       4.13057       3.40527             0       52.2031      0.719848             0       30.4992             0             0      0.199269   1.00998e-15      0.133615        102010        103233        212591   1.85048e-15
    0.0376577       287.857       288.519        0.2802      -5.12097      -12.1587             0       4.17138       3.41449             0        53.238      0.770428             0       30.0843             0             0      0.199303   1.01234e-15      0.133467        102013        103235        212040    1.8548e-15
    0.0378278       287.849       288.519      0.277924      -5.25477      -12.0216             0       4.21219       3.42371             0        54.273      0.821008             0       29.6693             0             0      0.199337    1.0147e-15      0.133318        102016        103236        211490   1.85913e-15
     0.037998       287.841       288.519      0.275647      -5.38857      -11.8845             0       4.25299       3.43293             0        55.308      0.871589             0       29.2543             0             0      0.199371   1.01706e-15       0.13317        102019        103237        210939   1.86345e-15
    0.0381682       287.835        288.52       0.27152      -5.48669      -11.7412             0       4.29872       3.43008             0       56.0781      0.968232             0        28.815             0             0      0.199383   1.01938e-15      0.133116        102022        103239        210460    1.8677e-15
    0.0383383       287.829        288.52      0.267371      -5.58439      -11.5978             0        4.3445       3.42709             0       56.8451       1.06542             0       28.3755             0             0      0.199395    1.0217e-15      0.133063        102024        103240        209981   1.87194e-15
    0.0385085       287.823        288.52      0.263222      -5.68209      -11.4544             0       4.39029       3.42409             0       57.6121       1.16262             0        27.936             0             0      0.199408   1.02401e-15       0.13301        102027        103242        209503   1.87618e-15
    0.0386787       287.818        288.52      0.259073      -5.77979       -11.311             0       4.43607       3.42109             0       58.3791       1.25981             0       27.4965             0             0       0.19942   1.02633e-15      0.132957        102030        103243        209024   1.88042e-15
    0.0388488       287.812       288.521      0.254925      -5.87748      -11.1676             0       4.48185        3.4181             0        59.146         1.357             0        27.057             0             0      0.199432   1.02864e-15      0.132904        102033        103244        208546   1.88466e-15
     0.039019       287.806       288.521      0.250671      -5.97052      -11.0219             0       4.52796       3.41367             0       59.8805       1.46498             0       26.6135             0             0      0.199441   1.03112e-15      0.132864        102036        103246        208077    1.8892e-15
    0.0391892       287.802       288.521      0.245584      -6.02654       -10.858             0       4.57665       3.39788             0       60.3569        1.6587             0       26.1383             0             0      0.199427   1.03488e-15      0.132926        102039        103247        207681    1.8961e-15
    0.0393594       287.798       288.521      0.240497      -6.08256      -10.6941             0       4.62534       3.38209             0       60.8333       1.85241             0        25.663             0             0      0.199413   1.03864e-15      0.132988        102041        103248        207285   1.90299e-15
    0.0395295       287.795        288.52       0.23541      -6.13858      -10.5303             0       4.67403        3.3663             0       61.3097       2.04613             0       25.1878             0             0      0.199399   1.04241e-15      0.133049        102044        103250        206889   1.90989e-15
    0.0396997       287.791        288.52      0.230323       -6.1946      -10.3664             0       4.72272       3.35051             0       61.7861       2.23984             0       24.7125             0             0      0.199384   1.04617e-15      0.133111        102047        103251        206493   1.91678e-15
    0.0398699       287.787        288.52      0.225236      -6.25062      -10.2025             0       4.77141       3.33471             0       62.2625       2.43356             0       24.2373             0             0       0.19937   1.04993e-15      0.133173        102050        103253        206097   1.92368e-15
      0.04004       287.783        288.52      0.220301      -6.30082      -10.0333             0       4.82001       3.31664             0       62.6834       2.64163             0       23.7541             0             0      0.199346   1.05399e-15      0.133278        102052        103254        205722   1.93111e-15
    0.0402102       287.781       288.519      0.215862      -6.33211      -9.84704             0       4.86834       3.29113             0       62.9241       2.89637             0       23.2448             0             0      0.199289   1.05902e-15      0.133526        102055        103256        205411   1.94031e-15
    0.0403804        287.78       288.518      0.211422       -6.3634      -9.66074             0       4.91667       3.26563             0       63.1649       3.15111             0       22.7355             0             0      0.199232   1.06404e-15      0.133774        102057        103257        205100   1.94952e-15
    0.0405506       287.778       288.517      0.206982      -6.39469      -9.47444             0         4.965       3.24013             0       63.4056       3.40585             0       22.2262             0             0      0.199175   1.06906e-15      0.134022        102059        103259        204789   1.95872e-15
    0.0407207       287.776       288.517      0.202543      -6.42598      -9.28814             0       5.01333       3.21463             0       63.6463       3.66059             0       21.7169             0             0      0.199118   1.07408e-15       0.13427        102062        103260        204478   1.96792e-15
    0.0408909       287.775       288.516      0.198103      -6.45727      -9.10184             0       5.06166       3.18912             0       63.8871       3.91533             0       21.2077             0             0      0.199061    1.0791e-15      0.134517        102064        103261        204168   1.97712e-15
    0.0410611       287.774       288.515       0.19411      -6.49131      -8.91225             0       5.10883       3.16163             0       64.0752       4.15969             0        20.694             0             0      0.198966   1.08557e-15      0.134929        102066        103263        203887   1.98896e-15
    0.0412312       287.777       288.514      0.190917      -6.53027       -8.7168             0       5.15394       3.13058             0       64.1693       4.38551             0       20.1726             0             0      0.198804   1.09461e-15      0.135635        102068        103264        203659   2.00552e-15
    0.0414014        287.78       288.513      0.187723      -6.56922      -8.52134             0       5.19905       3.09952             0       64.2634       4.61133             0       19.6512             0             0      0.198642   1.10365e-15       0.13634        102070        103266        203432   2.02209e-15
    0.0415716       287.783       288.511      0.184529      -6.60818      -8.32588             0       5.24416       3.06847             0       64.3575       4.83715             0       19.1298             0             0       0.19848   1.11268e-15      0.137045        102072        103267        203204   2.03865e-15
    0.0417417       287.785        288.51      0.181336      -6.64713      -8.13042             0       5.28927       3.03742             0       64.4515       5.06297             0       18.6084             0             0      0.198317   1.12172e-15       0.13775        102074        103269        202976   2.05521e-15
    0.0419119       287.788       288.509      0.178142      -6.68608      -7.93497             0       5.33438       3.00637             0       64.5456       5.28879             0        18.087             0             0      0.198155   1.13076e-15      0.138456        102076        103270        202749   2.07177e-15
    0.0420821       287.793       288.508      0.175676      -6.73492      -7.74317             0       5.37491       2.97371             0       64.6166       5.46537             0       17.5714             0             0      0.197903   1.14224e-15      0.139551        102078        103272        202557   2.09279e-15
    0.0422523         287.8       288.506      0.173993      -6.79435       -7.5553             0       5.41053       2.93934             0       64.6628       5.58908             0        17.062             0             0      0.197555   1.15632e-15      0.141065        102080        103273        202404    2.1186e-15
    0.0424224       287.807       288.504      0.172309      -6.85378      -7.36743             0       5.44615       2.90496             0       64.7089        5.7128             0       16.5527             0             0      0.197207   1.17041e-15      0.142578        102081        103275        202251   2.14441e-15
    0.0425926       287.815       288.502      0.170625      -6.91322      -7.17955             0       5.48177       2.87059             0        64.755       5.83652             0       16.0433             0             0      0.196859   1.18449e-15      0.144092        102083        103276        202099   2.17021e-15
    0.0427628       287.822         288.5      0.168941      -6.97265      -6.99168             0       5.51739       2.83621             0       64.8012       5.96024             0        15.534             0             0      0.196511   1.19858e-15      0.145606        102084        103278        201946   2.19602e-15
    0.0429329       287.829       288.498      0.167257      -7.03209      -6.80381             0       5.55302       2.80184             0       64.8473       6.08396             0       15.0247             0             0      0.196163   1.21266e-15      0.147119        102086        103279        201793   2.22183e-15
    0.0431031       287.837       288.495      0.166623      -7.08511      -6.62341             0       5.57846       2.76509             0       64.8389       6.14007             0       14.5202             0             0      0.195697   1.22792e-15      0.149144        102087        103280        201685   2.24979e-15
    0.0432733       287.846       288.493      0.166674      -7.13398      -6.44787             0        5.5973        2.7268             0       64.7949        6.1522             0        14.019             0             0      0.195155   1.24395e-15        0.1515        102089        103282        201606   2.27914e-15
    0.0434434       287.855        288.49      0.166724      -7.18284      -6.27233             0       5.61613        2.6885             0       64.7509       6.16434             0       13.5177             0             0      0.194613   1.25997e-15      0.153857        102090        103283        201527    2.3085e-15
    0.0436136       287.864       288.487      0.166775       -7.2317      -6.09679             0       5.63496       2.65021             0       64.7069       6.17647             0       13.0164             0             0      0.194071   1.27599e-15      0.156213        102091        103285        201448   2.33785e-15
    0.0437838       287.873       288.484      0.166825      -7.28056      -5.92124             0        5.6538       2.61192             0       64.6629        6.1886             0       12.5152             0             0      0.193529   1.29201e-15       0.15857        102093        103286        201369   2.36721e-15
     0.043954       287.882       288.481      0.166876      -7.32942       -5.7457             0       5.67263       2.57363             0       64.6189       6.20073             0       12.0139             0             0      0.192987   1.30803e-15      0.160926        102094        103287        201290   2.39656e-15
    0.0441241       287.888       288.477      0.167796      -7.34082      -5.57795             0       5.67847       2.52905             0        64.384       6.15138             0       11.5183             0             0      0.192316   1.32542e-15      0.163842        102095        103289        201268   2.42841e-15
    0.0442943       287.895       288.473       0.16904      -7.33833      -5.41309             0       5.67949       2.48213             0       64.0783       6.07922             0       11.0248             0             0      0.191598   1.34331e-15      0.166964        102096        103290        201268   2.46119e-15
    0.0444645       287.901       288.469      0.170283      -7.33583      -5.24823             0       5.68051       2.43522             0       63.7725       6.00706             0       10.5313             0             0       0.19088    1.3612e-15      0.170086        102097        103291        201267   2.49397e-15
    0.0446346       287.907       288.464      0.171526      -7.33333      -5.08337             0       5.68153       2.38831             0       63.4668       5.93489             0       10.0378             0             0      0.190162   1.37909e-15      0.173209        102098        103293        201266   2.52675e-15
    0.0448048       287.913        288.46      0.172769      -7.33083      -4.91851             0       5.68255       2.34139             0       63.1611       5.86273             0       9.54424             0             0      0.189444   1.39698e-15      0.176331        102099        103294        201266   2.55952e-15
     0.044975       287.919       288.456      0.174013      -7.32833      -4.75365             0       5.68358       2.29448             0       62.8554       5.79057             0       9.05073             0             0      0.188726   1.41487e-15      0.179454        102101        103295        201265    2.5923e-15
    0.0451451       287.919       288.451      0.175609      -7.27849      -4.59596             0       5.67057       2.23588             0       62.2604       5.65338             0       8.58249             0             0      0.187829   1.43463e-15       0.18335        102102        103296        201320   2.62852e-15
    0.0453153       287.917       288.446      0.177267      -7.22048      -4.43949             0       5.65515       2.17527             0       61.6156       5.50497             0       8.11861             0             0      0.186903   1.45472e-15       0.18738        102102        103298        201385   2.66533e-15
    0.0454855       287.916        288.44      0.178924      -7.16248      -4.28303             0       5.63973       2.11465             0       60.9708       5.35657             0       7.65473             0             0      0.185976   1.47481e-15      0.191409        102103        103299        201449   2.70213e-15