#           y             T         TMean   TPrime2Mean           U_x           U_y           U_z       UMean_x       UMean_y       UMean_z UPrime2Mea... UPrime2Mea... UPrime2Mea... UPrime2Mea... UPrime2Mea... UPrime2Mea...            O2           H2O          C3H8             p         pMean   pPrime2Mean           CO2
         0.04       287.839       288.409       0.10679       -9.9962      -8.66638             0      -5.14384      -7.34858             0       21.0645       7.21869             0       39.5977             0             0      0.198237   9.82659e-16        0.1381        102043        103152        192468   1.80042e-15
     0.039975       287.838       288.409      0.106947       -9.9783      -8.69351             0      -5.13658      -7.35519             0       21.1034       7.10893             0       39.7708             0             0      0.198322   9.79928e-16      0.137731        102042        103152        192480   1.79541e-15
    0.0399499       287.838       288.409      0.107104      -9.96039      -8.72064             0      -5.12933      -7.36179             0       21.1424       6.99916             0       39.9439             0             0      0.198407   9.77196e-16      0.137362        102042        103152        192493   1.79041e-15
    0.0399249       287.837       288.408      0.107261      -9.94248      -8.74777             0      -5.12208      -7.36839             0       21.1813        6.8894             0       40.1169             0             0      0.198492   9.74464e-16      0.136994        102042        103152        192506    1.7854e-15
    0.0398999       287.836       288.408      0.107418      -9.92457      -8.77491             0      -5.11483        -7.375             0       21.2202       6.77964             0         40.29             0             0      0.198576   9.71732e-16      0.136625        102041        103151        192519    1.7804e-15
    0.0398749       287.836       288.408      0.107574      -9.90667      -8.80204             0      -5.10757       -7.3816             0       21.2591       6.66988             0       40.4631             0             0      0.198661   9.69001e-16      0.136256        102041        103151        192532   1.77539e-15
    0.0398498       287.835       288.407      0.107731      -9.88876      -8.82917             0      -5.10032       -7.3882             0       21.2981       6.56012             0       40.6361             0             0      0.198746   9.66269e-16      0.135887        102040        103151        192545   1.77039e-15
    0.0398248       287.835       288.407      0.107888      -9.87085       -8.8563             0      -5.09307      -7.39481             0        21.337       6.45036             0       40.8092             0             0      0.198831   9.63537e-16      0.135518        102040        103151        192557   1.76538e-15
    0.0397998       287.834       288.407      0.108045      -9.85295      -8.88343             0      -5.08581      -7.40141             0       21.3759       6.34059             0       40.9823             0             0      0.198916   9.60805e-16      0.135149        102040        103151        192570   1.76038e-15
    0.0397748       287.833       288.406      0.108202      -9.83504      -8.91056             0      -5.07856      -7.40802             0       21.4148       6.23083             0       41.1554             0             0      0.199001   9.58073e-16       0.13478        102039        103150        192583   1.75537e-15
    0.0397497       287.833       288.406      0.108359      -9.81713      -8.93769             0      -5.07131      -7.41462             0       21.4538       6.12107             0       41.3284             0             0      0.199086   9.55342e-16      0.134411        102039        103150        192596   1.75037e-15
    0.0397247       287.832       288.406      0.108515      -9.79922      -8.96482             0      -5.06406      -7.42122             0       21.4927       6.01131             0       41.5015             0             0       0.19917    9.5261e-16      0.134042        102038        103150        192609   1.74536e-15
    0.0396997       287.832       288.405      0.108672      -9.78132      -8.99196             0       -5.0568      -7.42783             0       21.5316       5.90155             0       41.6746             0             0      0.199255   9.49878e-16      0.133673        102038        103150        192621   1.74036e-15
    0.0396747       287.831       288.405      0.108829      -9.76341      -9.01909             0      -5.04955      -7.43443             0       21.5705       5.79179             0       41.8476             0             0       0.19934   9.47146e-16      0.133304        102038        103149        192634   1.73535e-15
    0.0396496        287.83       288.405      0.108986       -9.7455      -9.04622             0       -5.0423      -7.44103             0       21.6095       5.68202             0       42.0207             0             0      0.199425   9.44415e-16      0.132935        102037        103149        192647   1.73035e-15
    0.0396246        287.83       288.404      0.109143       -9.7276      -9.07335             0      -5.03504      -7.44764             0       21.6484       5.57226             0       42.1938             0             0       0.19951   9.41683e-16      0.132566        102037        103149        192660   1.72534e-15
    0.0395996       287.829       288.404        0.1093      -9.70969      -9.10048             0      -5.02779      -7.45424             0       21.6873        5.4625             0       42.3668             0             0      0.199595   9.38951e-16      0.132197        102036        103149        192673   1.72034e-15
    0.0395746       287.829       288.404      0.109457      -9.69178      -9.12761             0      -5.02054      -7.46084             0       21.7262       5.35274             0       42.5399             0             0       0.19968   9.36219e-16      0.131828        102036        103148        192686   1.71533e-15
    0.0395495       287.828       288.403      0.109613      -9.67387      -9.15474             0      -5.01328      -7.46745             0       21.7652       5.24298             0        42.713             0             0      0.199764   9.33488e-16      0.131459        102036        103148        192698   1.71032e-15
    0.0395245       287.827       288.403       0.10977      -9.65597      -9.18187             0      -5.00603      -7.47405             0       21.8041       5.13322             0        42.886             0             0      0.199849   9.30756e-16       0.13109        102035        103148        192711   1.70532e-15
    0.0394995       287.827       288.403      0.109927      -9.63806        -9.209             0      -4.99878      -7.48065             0        21.843       5.02346             0       43.0591             0             0      0.199934   9.28024e-16      0.130722        102035        103148        192724   1.70031e-15
    0.0394745       287.826       288.402      0.110084      -9.62015      -9.23614             0      -4.99153      -7.48726             0       21.8819       4.91369             0       43.2322             0             0      0.200019   9.25292e-16      0.130353        102034        103148        192737   1.69531e-15
    0.0394494       287.826       288.402      0.110241      -9.60225      -9.26327             0      -4.98427      -7.49386             0       21.9208       4.80393             0       43.4052             0             0      0.200104   9.22561e-16      0.129984        102034        103147        192750    1.6903e-15
    0.0394244       287.825       288.402      0.110398      -9.58434       -9.2904             0      -4.97702      -7.50046             0       21.9598       4.69417             0       43.5783             0             0      0.200189   9.19829e-16      0.129615        102034        103147        192763    1.6853e-15
    0.0393994       287.824       288.401      0.110554      -9.56643      -9.31753             0      -4.96977      -7.50707             0       21.9987       4.58441             0       43.7514             0             0      0.200273   9.17097e-16      0.129246        102033        103147        192775   1.68029e-15
    0.0393744       287.824       288.401      0.110711      -9.54852      -9.34466             0      -4.96251      -7.51367             0       22.0376       4.47465             0       43.9245             0             0      0.200358   9.14365e-16      0.128877        102033        103147        192788   1.67529e-15
    0.0393493       287.823       288.401      0.110868      -9.53062      -9.37179             0      -4.95526      -7.52028             0       22.0765       4.36489             0       44.0975             0             0      0.200443   9.11634e-16      0.128508        102032        103146        192801   1.67028e-15
    0.0393243       287.823         288.4      0.111025      -9.51271      -9.39892             0      -4.94801      -7.52688             0       22.1155       4.25512             0       44.2706             0             0      0.200528   9.08902e-16      0.128139        102032        103146        192814   1.66528e-15
    0.0392993       287.822         288.4      0.111182       -9.4948      -9.42605             0      -4.94076      -7.53348             0       22.1544       4.14536             0       44.4437             0             0      0.200613    9.0617e-16       0.12777        102032        103146        192827   1.66027e-15
    0.0392743       287.822         288.4      0.111339       -9.4769      -9.45319             0       -4.9335      -7.54009             0       22.1933        4.0356             0       44.6167             0             0      0.200698   9.03438e-16      0.127401        102031        103146        192840   1.65527e-15
    0.0392492       287.821       288.399      0.111496      -9.45899      -9.48032             0      -4.92625      -7.54669             0       22.2322       3.92584             0       44.7898             0             0      0.200783   9.00707e-16      0.127032        102031        103146        192852   1.65026e-15
    0.0392242        287.82       288.399      0.111652      -9.44108      -9.50745             0        -4.919      -7.55329             0       22.2712       3.81608             0       44.9629             0             0      0.200867   8.97975e-16      0.126663        102030        103145        192865   1.64526e-15
    0.0391992        287.82       288.399      0.111809      -9.42317      -9.53458             0      -4.91174       -7.5599             0       22.3101       3.70632             0       45.1359             0             0      0.200952   8.95243e-16      0.126294        102030        103145        192878   1.64025e-15
    0.0391742       287.819       288.398      0.111966      -9.40527      -9.56171             0      -4.90449       -7.5665             0        22.349       3.59655             0        45.309             0             0      0.201037   8.92511e-16      0.125925        102030        103145        192891   1.63525e-15
    0.0391491       287.819       288.398      0.112123      -9.38736      -9.58884             0      -4.89724       -7.5731             0       22.3879       3.48679             0       45.4821             0             0      0.201122   8.89779e-16      0.125556        102029        103145        192904   1.63024e-15
    0.0391241       287.818       288.398       0.11228      -9.36945      -9.61597             0      -4.88999      -7.57971             0       22.4269       3.37703             0       45.6551             0             0      0.201207   8.87048e-16      0.125187        102029        103144        192916   1.62524e-15
    0.0390991       287.817       288.397      0.112437      -9.35155       -9.6431             0      -4.88273      -7.58631             0       22.4658       3.26727             0       45.8282             0             0      0.201292   8.84316e-16      0.124818        102028        103144        192929   1.62023e-15
    0.0390741       287.817       288.397      0.112593      -9.33364      -9.67024             0      -4.87548      -7.59291             0       22.5047       3.15751             0       46.0013             0             0      0.201377   8.81584e-16      0.124449        102028        103144        192942   1.61523e-15
     0.039049       287.816       288.397       0.11275      -9.31573      -9.69737             0      -4.86823      -7.59952             0       22.5436       3.04775             0       46.1743             0             0      0.201461   8.78852e-16      0.124081        102028        103144        192955   1.61022e-15
     0.039024       287.816       288.396      0.112907      -9.29783       -9.7245             0      -4.86097      -7.60612             0       22.5826       2.93798             0       46.3474             0             0      0.201546   8.76121e-16      0.123712        102027        103143        192968   1.60522e-15
     0.038999       287.815       288.396      0.113062      -9.27961      -9.75158             0      -4.85349      -7.61259             0        22.621       2.82886             0        46.521             0             0      0.201633   8.73346e-16      0.123333        102027        103143        192981   1.60013e-15
     0.038974       287.813       288.395       0.11317      -9.25406      -9.77736             0      -4.84052      -7.61592             0       22.6477       2.73502             0       46.7071             0             0      0.201772   8.69552e-16      0.122732        102026        103143        193008   1.59318e-15
    0.0389489       287.812       288.395      0.113277      -9.22851      -9.80315             0      -4.82755      -7.61924             0       22.6744       2.64118             0       46.8931             0             0       0.20191   8.65758e-16      0.122131        102026        103143        193035   1.58623e-15
    0.0389239        287.81       288.395      0.113384      -9.20295      -9.82894             0      -4.81457      -7.62256             0       22.7011       2.54734             0       47.0792             0             0      0.202048   8.61963e-16       0.12153        102025        103143        193062   1.57928e-15
    0.0388989       287.809       288.394      0.113492       -9.1774      -9.85473             0       -4.8016      -7.62588             0       22.7278       2.45349             0       47.2652             0             0      0.202186   8.58169e-16      0.120929        102025        103142        193089   1.57233e-15
    0.0388739       287.807       288.394      0.113599      -9.15185      -9.88051             0      -4.78863      -7.62921             0       22.7545       2.35965             0       47.4513             0             0      0.202325   8.54375e-16      0.120328        102025        103142        193116   1.56537e-15
    0.0388488       287.806       288.394      0.113707      -9.12629       -9.9063             0      -4.77566      -7.63253             0       22.7812       2.26581             0       47.6374             0             0      0.202463    8.5058e-16      0.119726        102024        103142        193143   1.55842e-15
    0.0388238       287.804       288.393      0.113814      -9.10074      -9.93209             0      -4.76268      -7.63585             0       22.8079       2.17197             0       47.8234             0             0      0.202601   8.46786e-16      0.119125        102024        103142        193169   1.55147e-15
    0.0387988       287.803       288.393      0.113922      -9.07519      -9.95788             0      -4.74971      -7.63917             0       22.8346       2.07813             0       48.0095             0             0      0.202739   8.42991e-16      0.118524        102023        103141        193196   1.54452e-15
    0.0387738       287.801       288.393      0.114029      -9.04964      -9.98366             0      -4.73674       -7.6425             0       22.8613       1.98429             0       48.1955             0             0      0.202878   8.39197e-16      0.117923        102023        103141        193223   1.53757e-15
    0.0387487         287.8       288.392      0.114137      -9.02408      -10.0095             0      -4.72377      -7.64582             0       22.8879       1.89044             0       48.3816             0             0      0.203016   8.35403e-16      0.117322        102023        103141        193250   1.53061e-15
    0.0387237       287.798       288.392      0.114244      -8.99853      -10.0352             0      -4.71079      -7.64914             0       22.9146        1.7966             0       48.5676             0             0      0.203154   8.31608e-16       0.11672        102022        103141        193277   1.52366e-15
    0.0386987       287.797       288.392      0.114352      -8.97298       -10.061             0      -4.69782      -7.65246             0       22.9413       1.70276             0       48.7537             0             0      0.203293   8.27814e-16      0.116119        102022        103141        193304   1.51671e-15
    0.0386737       287.795       288.391      0.114459      -8.94742      -10.0868             0      -4.68485      -7.65579             0        22.968       1.60892             0       48.9398             0             0      0.203431   8.24019e-16      0.115518        102021        103140        193331   1.50976e-15
    0.0386486       287.794       288.391      0.114567      -8.92187      -10.1126             0      -4.67187      -7.65911             0       22.9947       1.51508             0       49.1258             0             0      0.203569   8.20225e-16      0.114917        102021        103140        193358   1.50281e-15
    0.0386236       287.792        288.39      0.114674      -8.89632      -10.1384             0       -4.6589      -7.66243             0       23.0214       1.42124             0       49.3119             0             0      0.203707   8.16431e-16      0.114316        102020        103140        193385   1.49585e-15
    0.0385986       287.791        288.39      0.114782      -8.87077      -10.1642             0      -4.64593      -7.66575             0       23.0481       1.32739             0       49.4979             0             0      0.203846   8.12636e-16      0.113715        102020        103140        193412    1.4889e-15
    0.0385736       287.789        288.39      0.114889      -8.84521        -10.19             0      -4.63296      -7.66908             0       23.0748       1.23355             0        49.684             0             0      0.203984   8.08842e-16      0.113113        102020        103140        193438   1.48195e-15
    0.0385485       287.788       288.389      0.114997      -8.81966      -10.2158             0      -4.61998       -7.6724             0       23.1015       1.13971             0         49.87             0             0      0.204122   8.05048e-16      0.112512        102019        103139        193465     1.475e-15
    0.0385235       287.786       288.389      0.115104      -8.79411      -10.2415             0      -4.60701      -7.67572             0       23.1282       1.04587             0       50.0561             0             0       0.20426   8.01253e-16      0.111911        102019        103139        193492   1.46805e-15
    0.0384985       287.785       288.389      0.115212      -8.76855      -10.2673             0      -4.59404      -7.67904             0       23.1549      0.952028             0       50.2422             0             0      0.204399   7.97459e-16       0.11131        102018        103139        193519   1.46109e-15
    0.0384735       287.783       288.388      0.115319        -8.743      -10.2931             0      -4.58107      -7.68237             0       23.1816      0.858186             0       50.4282             0             0      0.204537   7.93664e-16      0.110709        102018        103139        193546   1.45414e-15
    0.0384484       287.782       288.388      0.115427      -8.71745      -10.3189             0      -4.56809      -7.68569             0       23.2083      0.764344             0       50.6143             0             0      0.204675    7.8987e-16      0.110108        102017        103138        193573   1.44719e-15
    0.0384234        287.78       288.388      0.115534      -8.69189      -10.3447             0      -4.55512      -7.68901             0        23.235      0.670503             0       50.8003             0             0      0.204814   7.86076e-16      0.109506        102017        103138        193600   1.44024e-15
    0.0383984       287.779       288.387      0.115641      -8.66634      -10.3705             0      -4.54215      -7.69233             0       23.2617      0.576661             0       50.9864             0             0      0.204952   7.82281e-16      0.108905        102017        103138        193627   1.43329e-15
    0.0383734       287.777       288.387      0.115749      -8.64079      -10.3963             0      -4.52918      -7.69566             0       23.2884       0.48282             0       51.1724             0             0       0.20509   7.78487e-16      0.108304        102016        103138        193654   1.42633e-15
    0.0383483       287.776       288.387      0.115856      -8.61524      -10.4221             0       -4.5162      -7.69898             0       23.3151      0.388978             0       51.3585             0             0      0.205228   7.74692e-16      0.107703        102016        103138        193681   1.41938e-15
    0.0383233       287.774       288.386      0.115964      -8.58968      -10.4478             0      -4.50323       -7.7023             0       23.3418      0.295136             0       51.5446             0             0      0.205367   7.70898e-16      0.107102        102015        103137        193707   1.41243e-15
    0.0382983       287.773       288.386      0.116071      -8.56413      -10.4736             0      -4.49026      -7.70562             0       23.3685      0.201295             0       51.7306             0             0      0.205505   7.67104e-16      0.106501        102015        103137        193734   1.40548e-15
    0.0382733       287.771       288.385      0.116179      -8.53858      -10.4994             0      -4.47728      -7.70895             0       23.3952      0.107453             0       51.9167             0             0      0.205643   7.63309e-16      0.105899        102015        103137        193761   1.39853e-15
    0.0382482        287.77       288.385      0.116286      -8.51302      -10.5252             0      -4.46431      -7.71227             0       23.4219     0.0136116             0       52.1027             0             0      0.205781   7.59515e-16      0.105298        102014        103137        193788   1.39157e-15
    0.0382232       287.768       288.385      0.116394      -8.48747       -10.551             0      -4.45134      -7.71559             0       23.4486      -0.08023             0       52.2888             0             0       0.20592   7.55721e-16      0.104697        102014        103136        193815   1.38462e-15
    0.0381982       287.767       288.384      0.116501      -8.46192      -10.5768             0      -4.43837      -7.71891             0       23.4753     -0.174072             0       52.4749             0             0      0.206058   7.51926e-16      0.104096        102013        103136        193842   1.37767e-15
    0.0381732       287.765       288.384      0.116609      -8.43637      -10.6026             0      -4.42539      -7.72224             0        23.502     -0.267913             0       52.6609             0             0      0.206196   7.48132e-16      0.103495        102013        103136        193869   1.37072e-15
    0.0381481       287.764       288.384      0.116716      -8.41081      -10.6284             0      -4.41242      -7.72556             0       23.5287     -0.361755             0        52.847             0             0      0.206334   7.44337e-16      0.102894        102012        103136        193896   1.36377e-15
    0.0381231       287.762       288.383      0.116824      -8.38526      -10.6541             0      -4.39945      -7.72888             0       23.5553     -0.455596             0        53.033             0             0      0.206473   7.40543e-16      0.102292        102012        103136        193923   1.35681e-15
    0.0380981       287.761       288.383      0.116931      -8.35971      -10.6799             0      -4.38648       -7.7322             0        23.582     -0.549438             0       53.2191             0             0      0.206611   7.36749e-16      0.101691        102012        103135        193950   1.34986e-15
    0.0380731       287.759       288.383      0.117039      -8.33415      -10.7057             0       -4.3735      -7.73552             0       23.6087      -0.64328             0       53.4051             0             0      0.206749   7.32954e-16       0.10109        102011        103135        193976   1.34291e-15
     0.038048       287.758       288.382      0.117146       -8.3086      -10.7315             0      -4.36053      -7.73885             0       23.6354     -0.737121             0       53.5912             0             0      0.206888    7.2916e-16      0.100489        102011        103135        194003   1.33596e-15
     0.038023       287.756       288.382      0.117254      -8.28305      -10.7573             0      -4.34756      -7.74217             0       23.6621     -0.830963             0       53.7773             0             0      0.207026   7.25365e-16     0.0998877        102010        103135        194030   1.32901e-15
     0.037998       287.755       288.381      0.117356      -8.25679      -10.7829             0       -4.3341      -7.74517             0       23.6867     -0.923024             0       53.9636             0             0      0.207164   7.21617e-16      0.099288        102010        103134        194058   1.32214e-15
     0.037973       287.753       288.381      0.117397      -8.22246      -10.8061             0       -4.3151      -7.74442             0       23.6868     -0.994614             0       54.1538             0             0      0.207298   7.18399e-16     0.0987056        102010        103134        194096   1.31624e-15
    0.0379479       287.752       288.381      0.117438      -8.18812      -10.8292             0      -4.29609      -7.74368             0        23.687       -1.0662             0        54.344             0             0      0.207432    7.1518e-16     0.0981232        102009        103134        194134   1.31034e-15
    0.0379229        287.75       288.381      0.117479      -8.15379      -10.8524             0      -4.27709      -7.74294             0       23.6871      -1.13779             0       54.5341             0             0      0.207566   7.11962e-16     0.0975408        102009        103134        194171   1.30445e-15
    0.0378979       287.749        288.38       0.11752      -8.11945      -10.8756             0      -4.25808      -7.74219             0       23.6872      -1.20938             0       54.7243             0             0        0.2077   7.08744e-16     0.0969584        102008        103134        194209   1.29855e-15
    0.0378729       287.747        288.38      0.117561      -8.08512      -10.8988             0      -4.23908      -7.74145             0       23.6873      -1.28097             0       54.9144             0             0      0.207834   7.05525e-16      0.096376        102008        103134        194247   1.29265e-15
    0.0378478       287.746        288.38      0.117602      -8.05078       -10.922             0      -4.22007       -7.7407             0       23.6875      -1.35256             0       55.1046             0             0      0.207967   7.02307e-16     0.0957936        102008        103133        194285   1.28676e-15
    0.0378228       287.745        288.38      0.117643      -8.01645      -10.9451             0      -4.20107      -7.73996             0       23.6876      -1.42415             0       55.2947             0             0      0.208101   6.99089e-16     0.0952112        102007        103133        194322   1.28086e-15
    0.0377978       287.743       288.379      0.117685      -7.98211      -10.9683             0      -4.18206      -7.73922             0       23.6877      -1.49574             0       55.4849             0             0      0.208235    6.9587e-16     0.0946288        102007        103133        194360   1.27496e-15
    0.0377728       287.742       288.379      0.117726      -7.94778      -10.9915             0      -4.16306      -7.73847             0       23.6879      -1.56733             0       55.6751             0             0      0.208369   6.92652e-16     0.0940464        102006        103133        194398   1.26907e-15
    0.0377477        287.74       288.379      0.117767      -7.91344      -11.0147             0      -4.14406      -7.73773             0        23.688      -1.63892             0       55.8652             0             0      0.208503   6.89433e-16     0.0934641        102006        103133        194436   1.26317e-15
    0.0377227       287.739       288.378      0.117808      -7.87911      -11.0379             0      -4.12505      -7.73698             0       23.6881      -1.71051             0       56.0554             0             0      0.208637   6.86215e-16     0.0928817        102006        103133        194473   1.25727e-15