#           y             T         TMean   TPrime2Mean           U_x           U_y           U_z       UMean_x       UMean_y       UMean_z UPrime2Mea... UPrime2Mea... UPrime2Mea... UPrime2Mea... UPrime2Mea... UPrime2Mea...            O2           H2O          C3H8             p         pMean   pPrime2Mean           CO2
         0.02       287.566       288.095      0.157722       24.0758      -7.10259             0       21.5289     -0.703095             0       43.4474      -2.18674             0        20.445             0             0      0.226759   1.46112e-16     0.0140916        101933        103191        140697   2.67704e-16
    0.0201677       287.575       288.093      0.153099       23.6974      -7.09615             0        21.548     -0.679282             0       43.3075       -1.3804             0       20.8043             0             0      0.226182   1.79609e-16     0.0165983        101933        103191        141394   3.29076e-16
    0.0203353       287.583       288.091      0.148475       23.3191      -7.08971             0        21.567      -0.65547             0       43.1676     -0.574053             0       21.1636             0             0      0.225606   2.13105e-16     0.0191049        101934        103190        142091   3.90449e-16
     0.020503       287.592       288.089      0.143851       22.9407      -7.08327             0       21.5861     -0.631658             0       43.0276      0.232291             0       21.5228             0             0      0.225029   2.46602e-16     0.0216116        101934        103189        142787   4.51821e-16
    0.0206707         287.6       288.086      0.139228       22.5623      -7.07683             0       21.6052     -0.607846             0       42.8877       1.03864             0       21.8821             0             0      0.224453   2.80099e-16     0.0241182        101935        103189        143484   5.13194e-16
    0.0208383       287.609       288.084      0.134604        22.184      -7.07039             0       21.6243     -0.584034             0       42.7477       1.84498             0       22.2414             0             0      0.223876   3.13596e-16     0.0266249        101935        103188        144180   5.74566e-16
     0.021006       287.617       288.082       0.13001       21.8031       -7.0644             0       21.6378     -0.559915             0       42.6123       2.65505             0       22.6032             0             0      0.223282    3.4747e-16     0.0292085        101936        103187        144879   6.36629e-16
    0.0211737       287.635       288.085      0.126215       21.3543      -7.07057             0       21.5024     -0.527525             0          42.6       3.56554             0       23.0347             0             0      0.222211   3.91483e-16     0.0338638        101937        103187        145627   7.17269e-16
    0.0213413       287.652       288.088       0.12242       20.9055      -7.07674             0       21.3669     -0.495136             0       42.5876       4.47602             0       23.4662             0             0      0.221141   4.35496e-16     0.0385192        101937        103186        146376   7.97909e-16
     0.021509       287.669        288.09      0.118626       20.4568      -7.08292             0       21.2315     -0.462747             0       42.5752       5.38651             0       23.8976             0             0       0.22007   4.79509e-16     0.0431745        101938        103185        147124    8.7855e-16
    0.0216767       287.686       288.093      0.114831        20.008      -7.08909             0       21.0961     -0.430357             0       42.5628         6.297             0       24.3291             0             0      0.218999   5.23522e-16     0.0478299        101939        103185        147873    9.5919e-16
    0.0218443       287.703       288.096      0.111036       19.5592      -7.09526             0       20.9607     -0.397968             0       42.5504       7.20748             0       24.7606             0             0      0.217928   5.67535e-16     0.0524853        101939        103184        148621   1.03983e-15
     0.022012        287.72       288.098      0.107361       19.1236      -7.11121             0       20.8147     -0.367013             0       42.5277       8.11055             0       25.1984             0             0      0.216872   6.10357e-16     0.0570767        101940        103183        149375   1.11829e-15
    0.0221797       287.736       288.105      0.105237       18.8579      -7.25375             0       20.5329     -0.354651             0       42.3711       8.91759             0        25.719             0             0      0.216007   6.37748e-16     0.0608398        101940        103183        150194   1.16847e-15
    0.0223473       287.751       288.112      0.103113       18.5923      -7.39628             0       20.2511     -0.342288             0       42.2145       9.72463             0       26.2396             0             0      0.215141   6.65138e-16      0.064603        101940        103182        151013   1.21866e-15
     0.022515       287.766       288.119      0.100988       18.3267      -7.53882             0       19.9692     -0.329926             0       42.0579       10.5317             0       26.7601             0             0      0.214276   6.92529e-16     0.0683662        101941        103181        151833   1.26884e-15
    0.0226827       287.782       288.125     0.0988636        18.061      -7.68136             0       19.6874     -0.317563             0       41.9013       11.3387             0       27.2807             0             0       0.21341   7.19919e-16     0.0721293        101941        103180        152652   1.31903e-15
    0.0228504       287.797       288.132     0.0967391       17.7954       -7.8239             0       19.4056     -0.305201             0       41.7448       12.1457             0       27.8013             0             0      0.212545    7.4731e-16     0.0758925        101941        103180        153472   1.36921e-15
     0.023018       287.811       288.139      0.094841       17.5488      -7.97531             0       19.1117     -0.296446             0       41.5554       12.9238             0       28.3451             0             0      0.211732   7.72762e-16     0.0794262        101942        103179        154300   1.41584e-15
    0.0231857       287.817       288.149     0.0948226       17.4599      -8.20037             0       18.7182     -0.317656             0       41.0936       13.4616             0       29.0818             0             0      0.211358   7.82115e-16     0.0810542        101942        103178        155205   1.43298e-15
    0.0233534       287.822       288.159     0.0948043       17.3711      -8.42544             0       18.3247     -0.338866             0       40.6318       13.9994             0       29.8185             0             0      0.210983   7.91468e-16     0.0826822        101941        103178        156110   1.45012e-15
     0.023521       287.827       288.168     0.0947859       17.2822       -8.6505             0       17.9312     -0.360076             0         40.17       14.5373             0       30.5553             0             0      0.210609   8.00821e-16     0.0843102        101941        103177        157014   1.46725e-15
    0.0236887       287.833       288.178     0.0947675       17.1934      -8.87557             0       17.5376     -0.381286             0       39.7082       15.0751             0        31.292             0             0      0.210234   8.10174e-16     0.0859382        101941        103176        157919   1.48439e-15
    0.0238564       287.838       288.188     0.0947492       17.1045      -9.10063             0       17.1441     -0.402496             0       39.2465       15.6129             0       32.0287             0             0       0.20986   8.19527e-16     0.0875662        101941        103176        158824   1.50153e-15
     0.024024       287.842       288.198     0.0949333       17.0205      -9.32506             0       16.7508     -0.429493             0       38.8314       16.1023             0       32.7993             0             0      0.209531   8.27646e-16     0.0889975        101941        103175        159748    1.5164e-15
    0.0241917        287.84       288.209     0.0963279       16.9655      -9.54574             0       16.3589     -0.491089             0       38.6959       16.3028             0       33.7726             0             0      0.209472   8.28386e-16     0.0892529        101940        103174        160789   1.51776e-15
    0.0243594       287.837       288.219     0.0977225       16.9104      -9.76641             0        15.967     -0.552686             0       38.5603       16.5033             0       34.7459             0             0      0.209413   8.29126e-16     0.0895082        101940        103174        161830   1.51911e-15
     0.024527       287.835        288.23     0.0991172       16.8554      -9.98708             0       15.5752     -0.614282             0       38.4248       16.7038             0       35.7191             0             0      0.209354   8.29866e-16     0.0897635        101939        103173        162871   1.52047e-15
    0.0246947       287.832        288.24      0.100512       16.8003      -10.2077             0       15.1833     -0.675879             0       38.2893       16.9042             0       36.6924             0             0      0.209296   8.30606e-16     0.0900189        101939        103172        163912   1.52183e-15
    0.0248624        287.83       288.251      0.101906       16.7453      -10.4284             0       14.7914     -0.737475             0       38.1537       17.1047             0       37.6657             0             0      0.209237   8.31346e-16     0.0902742        101938        103171        164952   1.52318e-15
      0.02503       287.827       288.261      0.103325       16.6805       -10.647             0        14.418     -0.804843             0       38.0294       17.2798             0       38.6807             0             0      0.209199   8.31375e-16     0.0904412        101937        103170        166026   1.52323e-15
    0.0251977       287.823       288.269      0.104856       16.5716      -10.8557             0       14.1297      -0.89866             0       37.9568       17.3383             0       39.8872             0             0      0.209253   8.28147e-16     0.0902034        101936        103169        167252   1.51732e-15
    0.0253654       287.819       288.278      0.106386       16.4626      -11.0644             0       13.8414     -0.992477             0       37.8841       17.3968             0       41.0937             0             0      0.209308   8.24919e-16     0.0899656        101935        103168        168478    1.5114e-15
     0.025533       287.815       288.286      0.107916       16.3536      -11.2732             0        13.553      -1.08629             0       37.8115       17.4553             0       42.3001             0             0      0.209363    8.2169e-16     0.0897278        101934        103167        169704   1.50549e-15
    0.0257007       287.811       288.294      0.109446       16.2447      -11.4819             0       13.2647      -1.18011             0       37.7388       17.5137             0       43.5066             0             0      0.209417   8.18462e-16     0.0894899        101933        103165        170930   1.49957e-15
    0.0258684       287.807       288.303      0.110977       16.1357      -11.6907             0       12.9764      -1.27393             0       37.6661       17.5722             0       44.7131             0             0      0.209472   8.15233e-16     0.0892521        101932        103164        172156   1.49366e-15
     0.026036       287.803        288.31      0.112348       16.0064      -11.8895             0       12.7025      -1.37167             0       37.4746       17.6098             0       45.9633             0             0      0.209559   8.10753e-16     0.0888725        101931        103163        173425   1.48545e-15
    0.0262037       287.798       288.314      0.113137        15.803      -12.0521             0       12.4813      -1.48374             0       36.8487       17.5708             0       47.3732             0             0      0.209766   8.01702e-16     0.0879746        101930        103161        174852   1.46887e-15
    0.0263714       287.793       288.318      0.113927       15.5996      -12.2148             0         12.26      -1.59581             0       36.2228       17.5318             0       48.7831             0             0      0.209972   7.92651e-16     0.0870767        101929        103160        176279   1.45228e-15
     0.026539       287.788       288.321      0.114717       15.3961      -12.3774             0       12.0388      -1.70788             0       35.5969       17.4928             0        50.193             0             0      0.210179     7.836e-16     0.0861788        101927        103158        177706    1.4357e-15
    0.0267067       287.782       288.325      0.115506       15.1927        -12.54             0       11.8176      -1.81995             0       34.9709       17.4538             0       51.6029             0             0      0.210385   7.74549e-16     0.0852809        101926        103157        179133   1.41912e-15
    0.0268744       287.777       288.329      0.116296       14.9893      -12.7026             0       11.5964      -1.93202             0        34.345       17.4148             0       53.0128             0             0      0.210592   7.65498e-16      0.084383        101925        103155        180561   1.40253e-15
     0.027042       287.771       288.332      0.116969       14.7615      -12.8582             0       11.3689       -2.0449             0        33.664       17.3307             0       54.4592             0             0      0.210847   7.54821e-16     0.0832722        101923        103153        182012   1.38297e-15
    0.0272097       287.764       288.334      0.117293       14.4612      -12.9929             0        11.123       -2.1602             0       32.8182       17.1115             0       56.0147             0             0      0.211249   7.39287e-16     0.0815249        101922        103152        183538   1.35451e-15
    0.0273774       287.756       288.335      0.117617       14.1608      -13.1276             0       10.8772       -2.2755             0       31.9724       16.8923             0       57.5702             0             0      0.211651   7.23753e-16     0.0797776        101920        103150        185063   1.32605e-15
     0.027545       287.749       288.336      0.117942       13.8605      -13.2623             0       10.6313       -2.3908             0       31.1266       16.6731             0       59.1256             0             0      0.212053   7.08219e-16     0.0780303        101919        103148        186589   1.29759e-15
    0.0277127       287.741       288.338      0.118266       13.5602      -13.3969             0       10.3854       -2.5061             0       30.2808       16.4539             0       60.6811             0             0      0.212455   6.92685e-16      0.076283        101917        103146        188114   1.26913e-15
    0.0278804       287.734       288.339       0.11859       13.2598      -13.5316             0       10.1395       -2.6214             0       29.4349       16.2348             0       62.2366             0             0      0.212857   6.77151e-16     0.0745357        101916        103144        189640   1.24067e-15
     0.028048       287.727       288.341      0.118872        12.941      -13.6582             0       9.88702      -2.73827             0        28.568       15.9615             0       63.7861             0             0      0.213283   6.61558e-16     0.0726821        101914        103142        191134    1.2121e-15
    0.0282157       287.719       288.342      0.119051       12.5763      -13.7649             0       9.61819      -2.85907             0       27.6483       15.5536             0       65.3204             0             0       0.21377   6.45817e-16     0.0705639        101913        103140        192550   1.18326e-15
    0.0283834       287.712       288.343      0.119229       12.2116      -13.8716             0       9.34936      -2.97987             0       26.7286       15.1456             0       66.8548             0             0      0.214257   6.30076e-16     0.0684456        101911        103139        193965   1.15442e-15
    0.0285511       287.705       288.344      0.119408       11.8469      -13.9782             0       9.08053      -3.10066             0       25.8089       14.7377             0       68.3892             0             0      0.214745   6.14336e-16     0.0663274        101909        103137        195381   1.12558e-15
    0.0287187       287.698       288.346      0.119586       11.4822      -14.0849             0        8.8117      -3.22146             0       24.8892       14.3298             0       69.9236             0             0      0.215232   5.98595e-16     0.0642092        101908        103135        196797   1.09674e-15
    0.0288864        287.69       288.347      0.119764       11.1175      -14.1915             0       8.54288      -3.34225             0       23.9695       13.9219             0        71.458             0             0      0.215719   5.82854e-16      0.062091        101906        103133        198212    1.0679e-15
    0.0290541       287.684       288.348       0.11987        10.736      -14.2855             0       8.27064       -3.4643             0       23.0816       13.4462             0       72.9102             0             0      0.216187   5.68648e-16     0.0600554        101905        103131        199514   1.04187e-15
    0.0292217       287.679       288.349      0.119821       10.3191      -14.3526             0       7.99123      -3.58896             0       22.2605       12.8282             0       74.1894             0             0      0.216616   5.57666e-16     0.0581934        101903        103129        200575   1.02175e-15
    0.0293894       287.675        288.35      0.119772       9.90224      -14.4197             0       7.71182      -3.71363             0       21.4394       12.2101             0       75.4687             0             0      0.217044   5.46685e-16     0.0563314        101902        103127        201637   1.00163e-15
    0.0295571        287.67       288.351      0.119723       9.48538      -14.4868             0       7.43241      -3.83829             0       20.6182       11.5921             0        76.748             0             0      0.217472   5.35704e-16     0.0544694        101901        103126        202699    9.8151e-16
    0.0297247       287.666       288.352      0.119675       9.06851       -14.554             0         7.153      -3.96295             0       19.7971       10.9741             0       78.0272             0             0        0.2179   5.24723e-16     0.0526074        101899        103124        203761   9.61391e-16
    0.0298924       287.661       288.352      0.119626       8.65165      -14.6211             0       6.87359      -4.08762             0        18.976       10.3561             0       79.3065             0             0      0.218329   5.13742e-16     0.0507454        101898        103122        204822   9.41271e-16
    0.0300601       287.658       288.353      0.119529       8.22666      -14.6715             0       6.59027       -4.2112             0       18.3344       9.66553             0       80.4369             0             0      0.218699   5.04639e-16     0.0491335        101897        103121        205706   9.24592e-16
    0.0302277       287.657       288.354      0.119345       7.78712       -14.692             0       6.29996      -4.33286             0       18.0145       8.84509             0       81.3005             0             0      0.218967   4.98899e-16     0.0479694        101896        103119        206272   9.14077e-16
    0.0303954       287.655       288.354      0.119162       7.34757      -14.7124             0       6.00964      -4.45451             0       17.6946       8.02465             0       82.1642             0             0      0.219235    4.9316e-16     0.0468054        101896        103118        206838   9.03561e-16
    0.0305631       287.654       288.355      0.118978       6.90803      -14.7329             0       5.71933      -4.57617             0       17.3747        7.2042             0       83.0278             0             0      0.219502   4.87421e-16     0.0456414        101895        103117        207403   8.93046e-16
    0.0307307       287.653       288.355      0.118795       6.46849      -14.7533             0       5.42901      -4.69782             0       17.0548       6.38376             0       83.8915             0             0       0.21977   4.81681e-16     0.0444774        101895        103115        207969    8.8253e-16
    0.0308984       287.652       288.356      0.118611       6.02895      -14.7738             0        5.1387      -4.81947             0       16.7349       5.56332             0       84.7552             0             0      0.220038   4.75942e-16     0.0433134        101894        103114        208534   8.72015e-16
    0.0310661       287.651       288.357      0.118464       5.58758       -14.775             0       4.84851       -4.9379             0       16.6132        4.7336             0       85.4294             0             0      0.220244   4.71535e-16     0.0424177        101894        103113        208913    8.6394e-16
    0.0312337       287.652       288.357      0.118371        5.1434      -14.7466             0       4.55853      -5.05138             0       16.7963       3.88963             0       85.8123             0             0      0.220355   4.69178e-16     0.0419348        101894        103112        209004   8.59621e-16
    0.0314014       287.653       288.357      0.118279       4.69922      -14.7182             0       4.26854      -5.16485             0       16.9794       3.04566             0       86.1952             0             0      0.220466    4.6682e-16     0.0414519        101895        103111        209096   8.55301e-16
    0.0315691       287.653       288.358      0.118186       4.25504      -14.6898             0       3.97855      -5.27833             0       17.1625       2.20169             0       86.5781             0             0      0.220577   4.64462e-16      0.040969        101895        103111        209187   8.50982e-16
    0.0317367       287.654       288.358      0.118094       3.81086      -14.6614             0       3.68857       -5.3918             0       17.3456       1.35771             0        86.961             0             0      0.220688   4.62105e-16     0.0404861        101895        103110        209278   8.46662e-16
    0.0319044       287.654       288.359      0.118002       3.36668       -14.633             0       3.39858      -5.50528             0       17.5287      0.513743             0       87.3439             0             0      0.220799   4.59747e-16     0.0400032        101896        103109        209370   8.42342e-16
    0.0320721       287.655       288.359      0.117919       2.93009      -14.5883             0       3.11605      -5.61488             0       17.8002     -0.253758             0       87.5377             0             0      0.220875   4.58042e-16     0.0396759        101897        103108        209316   8.39217e-16
    0.0322397       287.656       288.359      0.117848       2.50356      -14.5218             0       2.84341      -5.71934             0       18.1891     -0.919828             0       87.4807             0             0      0.220902   4.57201e-16      0.039555        101898        103108        209071   8.37677e-16
    0.0324074       287.657       288.358      0.117777       2.07704      -14.4554             0       2.57077      -5.82381             0        18.578       -1.5859             0       87.4236             0             0       0.22093    4.5636e-16     0.0394341        101899        103107        208826   8.36137e-16
    0.0325751       287.658       288.358      0.117706       1.65052       -14.389             0       2.29813      -5.92827             0       18.9669      -2.25197             0       87.3665             0             0      0.220958    4.5552e-16     0.0393132        101900        103107        208581   8.34597e-16
    0.0327427       287.659       288.358      0.117635       1.22399      -14.3225             0       2.02549      -6.03273             0       19.3558      -2.91804             0       87.3094             0             0      0.220986   4.54679e-16     0.0391923        101902        103107        208336   8.33057e-16
    0.0329104        287.66       288.358      0.117564      0.797469      -14.2561             0       1.75285       -6.1372             0       19.7446      -3.58411             0       87.2524             0             0      0.221014   4.53839e-16     0.0390714        101903        103106        208091   8.31517e-16
    0.0330781       287.661       288.358      0.117513      0.384597      -14.1773             0       1.49224      -6.23653             0       20.1155      -4.10843             0        87.031             0             0      0.221019   4.53295e-16     0.0390467        101904        103106        207767   8.30521e-16
    0.0332457       287.662       288.357      0.117486    -0.0126115      -14.0842             0       1.24543      -6.32997             0       20.4655      -4.47011             0        86.621             0             0         0.221   4.53093e-16     0.0391323        101906        103106        207351    8.3015e-16
    0.0334134       287.663       288.357      0.117458      -0.40982      -13.9912             0      0.998626      -6.42342             0       20.8156      -4.83179             0       86.2111             0             0       0.22098    4.5289e-16     0.0392179        101908        103106        206936   8.29779e-16
    0.0335811       287.664       288.356       0.11743     -0.807028      -13.8982             0       0.75182      -6.51686             0       21.1657      -5.19346             0       85.8012             0             0       0.22096   4.52688e-16     0.0393035        101910        103106        206520   8.29408e-16
    0.0337487       287.665       288.356      0.117403      -1.20424      -13.8051             0      0.505014       -6.6103             0       21.5158      -5.55514             0       85.3913             0             0       0.22094   4.52485e-16     0.0393892        101912        103106        206104   8.29037e-16
    0.0339164       287.666       288.355      0.117375      -1.60144      -13.7121             0      0.258208      -6.70374             0       21.8658      -5.91682             0       84.9813             0             0      0.220921   4.52283e-16     0.0394748        101914        103105        205689   8.28667e-16
    0.0340841       287.666       288.355       0.11738      -1.98146      -13.6119             0     0.0244572      -6.78968             0       22.1364      -6.10812             0       84.4346             0             0      0.220863    4.5252e-16     0.0397281        101916        103106        205251   8.29101e-16
    0.0342518       287.667       288.354      0.117419      -2.34439      -13.5045             0     -0.196316      -6.86816             0       22.3279      -6.13005             0        83.752             0             0      0.220766   4.53193e-16     0.0401481        101918        103106        204790   8.30335e-16
    0.0344194       287.667       288.354      0.117457      -2.70732      -13.3972             0     -0.417089      -6.94664             0       22.5194      -6.15198             0       83.0693             0             0      0.220669   4.53867e-16     0.0405682        101920        103106        204329   8.31569e-16
    0.0345871       287.668       288.353      0.117495      -3.07024      -13.2898             0     -0.637861      -7.02512             0       22.7109      -6.17392             0       82.3866             0             0      0.220573   4.54541e-16     0.0409882        101923        103106        203868   8.32803e-16
    0.0347548       287.668       288.352      0.117533      -3.43317      -13.1825             0     -0.858634       -7.1036             0       22.9024      -6.19585             0        81.704             0             0      0.220476   4.55214e-16     0.0414082        101925        103107        203408   8.34037e-16
    0.0349224       287.669       288.352      0.117571       -3.7961      -13.0751             0      -1.07941      -7.18208             0       23.0939      -6.21778             0       81.0213             0             0      0.220379   4.55888e-16     0.0418282        101928        103107        202947   8.35272e-16
    0.0350901       287.669       288.351      0.117686      -4.14186      -12.9642             0       -1.2887      -7.25038             0        23.204      -6.09069             0       80.2147             0             0      0.220207   4.57759e-16     0.0425779        101930        103108        202506     8.387e-16
    0.0352578       287.669       288.351      0.117867      -4.47285      -12.8501             0      -1.48811      -7.30993             0       23.2441      -5.83526             0       79.3013             0             0      0.219969   4.60661e-16     0.0436115        101933        103108        202083   8.44018e-16