#           y             T         TMean   TPrime2Mean           U_x           U_y           U_z       UMean_x       UMean_y       UMean_z UPrime2Mea... UPrime2Mea... UPrime2Mea... UPrime2Mea... UPrime2Mea... UPrime2Mea...            O2           H2O          C3H8             p         pMean   pPrime2Mean           CO2
            0       287.521       288.017     0.0634304       22.2707             0             0       22.5232             0             0       5.78164             0             0             0             0             0          0.23   5.13875e-22   3.40282e-10        101641        103223        219744   9.41514e-22
  0.000500501       287.521       288.017     0.0634451       22.2675     -0.120646             0       22.5248     0.0128021             0       5.79427      0.134982             0     0.0402436             0             0          0.23   1.35527e-21   6.70863e-09        101641        103223        219266    2.4831e-21
     0.001001       287.521       288.017     0.0634595       22.2643     -0.241315             0       22.5264     0.0256109             0       5.80703      0.269972             0     0.0805997             0             0          0.23   2.21075e-21   1.38944e-08        101642        103223        218787    4.0505e-21
    0.0015015       287.522       288.017      0.063322       22.2661     -0.374028             0       22.5223     0.0417679             0       5.89165      0.408695             0      0.177099             0             0          0.23   1.00962e-20   4.28979e-07        101644        103223        217473   1.84981e-20
     0.002002       287.522       288.017     0.0631842        22.268     -0.506956             0       22.5182     0.0579075             0       5.97652      0.547547             0      0.274032             0             0          0.23   1.81621e-20   8.95561e-07        101645        103223        216157   3.32763e-20
    0.0025025       287.523       288.017      0.062971       22.2515      -0.69381             0       22.5181     0.0697225             0       6.12482      0.718605             0      0.478627             0             0      0.229997   7.11616e-20   1.41847e-05        101649        103223        214088   1.30381e-19
     0.003003       287.523       288.017     0.0627573        22.235     -0.881062             0       22.5179     0.0816142             0       6.27459       0.88971             0      0.683985             0             0      0.229993   1.26107e-19   2.96831e-05        101652        103223        212016   2.31052e-19
    0.0035035       287.523       288.017     0.0624673       22.2276      -1.13424             0       22.5077      0.106207             0       6.66824       1.06871             0       1.01555             0             0      0.229905   5.03439e-19   0.000411179        101656        103223        209397   9.22395e-19
     0.004004       287.523       288.017     0.0621726       22.2195      -1.38889             0       22.4976      0.130719             0        7.0643       1.24902             0       1.35077             0             0      0.229808   8.95659e-19   0.000836665        101661        103223        206775   1.64101e-18
    0.0045045       287.534       288.018     0.0612793       22.1368      -1.82703             0       22.4982      0.145149             0       7.76001       1.59204             0       2.13924             0             0      0.228455   3.13388e-18    0.00671685        101666        103222        203716   5.74185e-18
   0.00500501       287.545       288.019     0.0604246       22.0531      -2.26811             0       22.4985      0.159809             0        8.4646       1.93467             0       2.93522             0             0      0.227031   5.42239e-18     0.0129099        101672        103221        200656   9.93482e-18
   0.00550551        287.62       288.032     0.0633839       21.8746      -2.99979             0       22.4578      0.197303             0       10.0485       2.23934             0       4.47532             0             0      0.218482   1.26897e-17     0.0500783        101678        103220        197527   2.32499e-17
   0.00600601       287.695       288.046      0.066611       21.6941      -3.73642             0       22.4171       0.23417             0       11.6303       2.55103             0       6.04436             0             0      0.209823   1.99789e-17     0.0877256        101684        103219        194402   3.66051e-17
   0.00650651       287.822        288.08     0.0918775       21.3511      -4.87976             0        22.372      0.219551             0       13.0286       3.44082             0       9.99625             0             0      0.192097   2.90693e-17      0.164796        101690        103215        191615   5.32604e-17
   0.00700701       287.949       288.114      0.117571       21.0094      -6.02321             0       22.3274      0.205886             0       14.3994       4.32658             0       13.9708             0             0      0.174375   3.80932e-17       0.24185        101696        103211        188836   6.97938e-17
   0.00750751       288.028       288.156      0.173339       20.7549      -7.17374             0       22.3215      0.259453             0       13.8241        4.9281             0       19.5453             0             0      0.156939   4.24307e-17      0.317658        101697        103205        186699   7.77409e-17
   0.00800801       288.105       288.198      0.229647       20.5002      -8.32108             0       22.3055      0.310986             0       13.2336       5.49028             0       25.1308             0             0      0.139593   4.67033e-17      0.393074        101698        103199        184563   8.55692e-17
   0.00850851        288.11       288.201      0.319139       20.2412      -9.27164             0       21.6682      0.237462             0       11.6995       3.63339             0       31.4003             0             0      0.127808   4.69872e-17      0.444314        101697        103191        182456   8.60893e-17
   0.00900901       288.115       288.203       0.40782       19.9848      -10.2107             0       21.0285      0.164306             0        10.164       1.75948             0       37.6269             0             0      0.116137   4.72501e-17      0.495056        101696        103183        180327    8.6571e-17
   0.00950951       288.077       288.184      0.452231       19.8721      -10.5235             0       20.2624      0.111224             0        8.5512      -1.04324             0       41.5156             0             0      0.110711   4.63729e-17       0.51865        101705        103179        177006   8.49639e-17
      0.01001        288.04       288.164      0.495165       19.7509      -10.8165             0       19.4898     0.0612493             0       6.96408      -3.81592             0       45.3043             0             0      0.105335   4.55054e-17      0.542024        101715        103175        173660   8.33745e-17
    0.0105105       288.011       288.139      0.465749       19.2118      -10.1352             0       18.3956      0.163588             0       6.63266      -5.11635             0       44.1971             0             0      0.102435   4.51142e-17      0.554631        101744        103180        169128   8.26577e-17
     0.011011        287.98       288.113       0.43668       18.6534      -9.44397             0       17.2861      0.265276             0       6.32219      -6.37987             0       43.0054             0             0     0.0995405   4.47486e-17      0.567215        101772        103185        164574   8.19878e-17
    0.0115115       287.933        288.03      0.423066       17.2372      -8.30682             0       15.4912      0.338041             0       6.94232      -6.00213             0       38.0619             0             0     0.0968866   4.55188e-17      0.578754        101798        103194        159075    8.3399e-17
     0.012012       287.885       287.947      0.410093       15.8064       -7.1668             0       13.6994      0.408929             0       7.54408      -5.59828             0       33.0771             0             0     0.0942797   4.63087e-17      0.590088        101823        103203        153586   8.48462e-17
    0.0125125       287.778        287.88      0.423189       13.7817      -5.91052             0       12.0358      0.403507             0       7.39862      -4.13275             0       26.4143             0             0     0.0935879   4.78978e-17      0.593096        101841        103210        148473   8.77577e-17
     0.013013       287.672       287.815       0.43565       11.7796      -4.67231             0       10.3987      0.396149             0       7.24022      -2.67617             0       19.8263             0             0     0.0926454   4.94099e-17      0.597194        101859        103217        143397   9.05282e-17
    0.0135135       287.645       287.843       0.42433       10.6265      -4.11156             0       9.75436       0.31626             0       6.59671       -1.5545             0       16.0441             0             0     0.0823117   4.80397e-17      0.642123        101872        103221        139724   8.80177e-17
     0.014014       287.621       287.872      0.411668       9.50924      -3.55293             0       9.13518      0.239027             0       5.95192     -0.458072             0       12.3204             0             0     0.0719382    4.6635e-17      0.687225        101885        103224        136079   8.54441e-17
    0.0145145       287.673       287.934      0.352434        9.6351       -3.0681             0       9.38803      0.254012             0       5.26277      -0.23741             0       10.6236             0             0     0.0601853   4.40355e-17      0.738325        101896        103226        133378   8.06812e-17
     0.015015       287.723       287.996      0.293466       9.75012      -2.58562             0       9.63817      0.267242             0       4.59465    -0.0239455             0        8.9632             0             0     0.0490659   4.16338e-17       0.78667        101906        103227        130713    7.6281e-17
    0.0155155        287.72       288.027      0.243125        9.5143      -2.17896             0       9.80022      0.223761             0       4.60669    -0.0432283             0        8.4808             0             0       0.05843   4.56316e-17      0.745956        101920        103227        129215   8.36055e-17
     0.016016       287.716       288.057      0.193878       9.30101      -1.78955             0       9.98156      0.177968             0       4.70223    -0.0927613             0       8.03705             0             0      0.068432    4.9623e-17       0.70247        101934        103227        127734   9.09185e-17
    0.0165165       287.687       288.084      0.177747       9.76887      -1.92218             0       10.7466     0.0622333             0       7.32377      -1.05736             0        8.7625             0             0     0.0977279   5.34241e-17      0.575096        101940        103226        126779   9.78828e-17
     0.017017       287.662       288.111      0.161845       10.3198      -2.06236             0       11.5767    -0.0576638             0       9.96317       -2.0354             0       9.47545             0             0      0.126862   5.69403e-17      0.448426        101947        103225        125822   1.04325e-16
    0.0175175       287.751       288.136      0.152471       13.2323      -2.41678             0       14.2543     -0.295824             0       13.1101      -3.39504             0       9.83331             0             0        0.1514   5.23644e-17      0.341738        101956        103225        124830   9.59414e-17
     0.018018       287.839       288.161      0.143004       16.1491      -2.76949             0       16.9224     -0.525721             0       16.1815      -4.72278             0       10.1916             0             0       0.17554   4.76272e-17      0.236782        101965        103225        123837    8.7262e-17
    0.0185185       287.884       288.139      0.131024        19.184      -3.07629             0       19.3371     -0.534366             0       17.2323      -5.19618             0       10.5615             0             0      0.189011    3.8572e-17      0.178215        101981        103224        122827   7.06711e-17
     0.019019       287.923       288.117      0.118879       22.1372       -3.3621             0       21.6853     -0.540607             0        18.236      -5.64434             0       10.9117             0             0      0.202354   2.95421e-17      0.120202        101996        103223        121850   5.41267e-17
    0.0195195       287.838       288.079      0.102538       23.0204      -3.11668             0       22.3476     -0.485998             0       18.0509      -5.45327             0       10.7631             0             0      0.212463   2.11533e-17      0.076249        102016        103223        121699   3.87569e-17
      0.02002       287.755       288.042     0.0863953       23.8612      -2.85889             0       22.9941     -0.432598             0        17.848      -5.26005             0       10.6129             0             0      0.222304   1.29192e-17     0.0334604        102035        103224        121570   2.36703e-17
    0.0205205       287.722       288.024     0.0750345       23.6832      -2.30431             0       23.2623     -0.408225             0       17.2191      -5.01534             0       10.4247             0             0      0.225718   8.39546e-18     0.0186171        102050        103224        121972   1.53821e-17
     0.021021        287.69       288.007     0.0639707       23.4946      -1.75425             0       23.5152     -0.379894             0       16.5998      -4.75252             0       10.2826             0             0      0.229008    4.0665e-18    0.00431429        102064        103223        122373   7.45059e-18
    0.0215215       287.696       288.008     0.0596785        23.066      -1.30726             0       23.4203       -0.2613             0       16.1978      -4.07682             0       11.1929             0             0      0.229462   4.17938e-18    0.00233784        102077        103221        122760   7.65741e-18
     0.022022       287.703        288.01      0.055428       22.6354      -0.85036             0       23.3017     -0.142067             0       15.8114       -3.3487             0       12.1376             0             0      0.229894   4.57194e-18   0.000459736        102089        103220        123156   8.37664e-18
    0.0225225       287.721       288.032     0.0520831        22.161     -0.177933             0       22.6693   -0.00897511             0       15.7636      -1.48174             0       13.8271             0             0      0.229835    1.1041e-17   0.000718513        102099        103217        123730   2.02292e-17
     0.023023        287.74       288.056     0.0487931       21.6557      0.491367             0       21.9851      0.130695             0       15.8058      0.449186             0       15.5285             0             0      0.229764   1.82112e-17    0.00102738        102109        103214        124298   3.33664e-17
    0.0235235       287.763       288.102     0.0466428       20.5105        1.0958             0       20.2282      0.406796             0       17.7147       3.70683             0       17.4773             0             0      0.229454   3.99221e-17    0.00237503        102118        103209        124764   7.31448e-17
     0.024024       287.787       288.148     0.0448166       19.2377        1.6987             0       18.4104      0.676714             0       19.9489       6.89887             0        19.477             0             0      0.229127   6.25692e-17    0.00379431        102126        103205        125256   1.14638e-16
    0.0245245       287.803        288.21     0.0494211        15.433        2.2711             0       15.3851      0.823993             0       28.6359       8.78964             0       22.4878             0             0      0.228474   1.03784e-16    0.00663404        102133        103200        126279   1.90151e-16
     0.025025       287.818       288.271     0.0542988       11.5799       2.82158             0       12.3715      0.956791             0       37.6486       10.4936             0       25.5648             0             0      0.227766    1.4742e-16    0.00971221        102140        103194        127314   2.70102e-16
    0.0255255       287.818       288.323       0.06437       6.80833       2.95574             0       9.58005      0.814441             0       52.8511       8.64739             0       29.9014             0             0      0.226016   2.37076e-16     0.0173206        102143        103187        128559   4.34368e-16
     0.026026       287.819       288.374     0.0743565       2.16186       3.04703             0       6.84533      0.665878             0       67.8302       6.72535             0       34.2331             0             0      0.224215   3.29104e-16     0.0251508        102145        103180        129811   6.02979e-16
    0.0265265       287.821       288.402     0.0827979     -0.203823       2.35703             0       5.14569      0.404024             0       78.7374       3.42046             0       38.4739             0             0      0.221484   4.64367e-16      0.037024        102148        103172        131186   8.50808e-16
     0.027027       287.824        288.43     0.0909932      -2.46677       1.65219             0       3.47988      0.137253             0       89.0315      0.104752             0       42.6642             0             0      0.218833   5.98181e-16     0.0485529        102151        103163        132588   1.09598e-15
    0.0275275       287.833       288.446     0.0948765      -2.92989      0.687361             0       2.40685     -0.215682             0       88.5861      -3.40039             0       45.9687             0             0      0.217568   7.06593e-16     0.0540512        102154        103155        134456   1.29461e-15
     0.028028       287.842       288.462     0.0985803      -3.35587     -0.282323             0        1.3525     -0.571104             0       87.6963      -6.88306             0       49.1714             0             0      0.216424   8.12772e-16     0.0590265        102157        103147        136349   1.48915e-15
    0.0285285       287.859       288.473     0.0992599      -3.15572      -1.33394             0      0.612853     -0.968475             0        79.316      -9.98691             0       50.6596             0             0      0.217308   8.81299e-16     0.0551843        102157        103139        138687    1.6147e-15
     0.029029       287.877       288.484     0.0997949      -2.95777      -2.37633             0     -0.121512      -1.36426             0       70.7922      -12.9813             0       52.0419             0             0      0.218202   9.48023e-16     0.0512959        102157        103132        141038   1.73695e-15
    0.0295295       287.915       288.493     0.0979825      -2.79561      -3.26894             0     -0.770143      -1.73429             0       59.9364      -14.1985             0       51.7046             0             0      0.219269   9.85459e-16     0.0466559        102155        103127        143598   1.80554e-15
      0.03003       287.953       288.503     0.0961045      -2.64423      -4.14918             0      -1.41488      -2.10121             0       49.1814      -15.2853             0       51.2858             0             0      0.220296   1.02112e-15     0.0421925        102153        103121        146146   1.87088e-15
    0.0305305       287.992       288.511     0.0932001      -2.66176      -4.83571             0      -1.99854      -2.41937             0       40.0073      -14.3296             0        49.589             0             0      0.220687    1.0289e-15     0.0404928        102149        103119        148499   1.88513e-15
     0.031031       288.031       288.518     0.0903858      -2.67703       -5.5162             0      -2.57642      -2.73143             0       31.1322       -13.285             0       47.8346             0             0      0.221061   1.03624e-15     0.0388644        102145        103116        150825   1.89858e-15
    0.0315315       288.053       288.523     0.0889362      -2.65804      -6.10514             0      -3.06676      -2.95123             0       26.7809      -10.8947             0       45.2082             0             0      0.221188   1.03694e-15     0.0383143        102139        103117        152721   1.89986e-15
     0.032032       288.074       288.527     0.0875959      -2.63153      -6.69094             0      -3.54622      -3.16508             0       22.7201       -8.4963             0       42.5542             0             0      0.221311   1.03754e-15      0.037778        102134        103118        154611   1.90096e-15
    0.0325325       288.081       288.529     0.0878548      -2.49512      -7.23076             0      -3.86663      -3.29183             0       22.9072      -5.97853             0        39.497             0             0      0.221388   1.03678e-15     0.0374444        102128        103121        156412   1.89957e-15
     0.033033       288.089        288.53     0.0881536      -2.35918      -7.76133             0       -4.1742      -3.41304             0       23.2253      -3.50335             0        36.438             0             0      0.221464   1.03595e-15     0.0371143        102123        103125        158248   1.89805e-15
    0.0335335       288.089        288.53     0.0890172      -2.22983      -8.16096             0       -4.3001      -3.45588             0       25.3981      -1.63084             0       33.3545             0             0      0.221528   1.03418e-15      0.036835        102118        103130        160575   1.89481e-15
     0.034034       288.088        288.53     0.0898581      -2.09988      -8.54992             0      -4.41457      -3.49516             0       27.5599      0.197124             0       30.2927             0             0      0.221591   1.03238e-15     0.0365601        102113        103135        162944   1.89152e-15
    0.0345345       288.087        288.53     0.0903857      -1.96172      -8.79243             0      -4.37255      -3.48561             0       29.5723       1.41439             0       27.5292             0             0       0.22164   1.03012e-15     0.0363456        102109        103140        165904   1.88737e-15
     0.035035       288.085       288.531     0.0908261      -1.81914      -9.02636             0      -4.32214      -3.47287             0        31.494       2.59713             0       24.7928             0             0      0.221688   1.02785e-15      0.036138        102106        103146        168886   1.88321e-15
    0.0355355       288.085       288.533     0.0901075      -1.61778      -9.14627             0      -4.16011      -3.41777             0        32.211       3.32114             0       22.4161             0             0      0.221715   1.02555e-15     0.0360226        102104        103151        172144     1.879e-15
     0.036036       288.084       288.536     0.0892489      -1.41032      -9.25848             0      -3.99109      -3.35939             0       32.8056       4.00148             0       20.0669             0             0       0.22174   1.02324e-15     0.0359125        102102        103155        175396   1.87476e-15
    0.0365365       288.085       288.542     0.0865861      -1.12433      -9.27153             0      -3.73211      -3.25879             0       31.8234       4.11886             0       18.0716             0             0      0.221749   1.02066e-15     0.0358722        102102        103159        178561   1.87003e-15
     0.037037       288.086       288.548     0.0838507     -0.835365      -9.27562             0       -3.4687      -3.15474             0       30.7422       4.19412             0       16.1074             0             0      0.221756   1.01806e-15     0.0358416        102102        103163        181700   1.86527e-15
    0.0375375       288.089       288.557     0.0802071     -0.509213      -9.16749             0      -3.15001      -3.00765             0       28.4211       3.74224             0       14.5322             0             0      0.221735   1.01521e-15     0.0359331        102103        103166        184514   1.86005e-15
     0.038038       288.092       288.566     0.0765511     -0.180756      -9.05046             0      -2.82966      -2.85824             0        26.087       3.27379             0       12.9923             0             0      0.221712   1.01241e-15     0.0360358        102105        103168        187295   1.85493e-15
    0.0385385       288.097       288.576     0.0727442      0.175716      -8.82508             0      -2.48923      -2.68072             0       23.5942       2.60385             0       11.8821             0             0      0.221657   1.01031e-15     0.0362743        102108        103170        189680   1.85108e-15
     0.039039       288.101       288.587     0.0689857      0.532626      -8.59239             0      -2.14901      -2.50218             0       21.1554       1.94061             0       10.7987             0             0        0.2216   1.00829e-15     0.0365195        102111        103172        192035   1.84737e-15
    0.0395395       288.106       288.595     0.0657994      0.894728      -8.27321             0      -1.81139      -2.31152             0       19.3554       1.35649             0       10.0314             0             0      0.221526   1.00719e-15     0.0368453        102114        103173        194026   1.84535e-15
      0.04004       288.111       288.604     0.0627478       1.25566      -7.94895             0      -1.47368      -2.12111             0       17.6102       0.78232             0       9.27543             0             0      0.221448   1.00613e-15     0.0371808        102118        103174        195989   1.84343e-15
    0.0405405       288.117        288.61     0.0612442       1.60321      -7.56633             0      -1.13481      -1.93358             0       16.4951      0.322499             0       8.64827             0             0      0.221345   1.00565e-15     0.0376299        102123        103175        197634   1.84254e-15
     0.041041       288.123       288.615     0.0598217       1.94683      -7.18046             0     -0.794425      -1.74667             0       15.3981     -0.125336             0       8.02272             0             0      0.221238   1.00529e-15     0.0380958        102128        103177        199252   1.84188e-15
    0.0415415       288.131       288.621     0.0593076       2.24637       -6.7583             0     -0.437018      -1.56664             0       14.5024     -0.438998             0       7.41513             0             0      0.221087   1.00623e-15     0.0387504        102133        103178        200570   1.84361e-15
     0.042042       288.138       288.626     0.0588274       2.54051      -6.33428             0    -0.0780834      -1.38769             0       13.6248     -0.736004             0       6.80625             0             0      0.220934   1.00738e-15     0.0394167        102138        103179        201861    1.8457e-15
    0.0425425       288.145       288.631     0.0587178       2.77562      -5.88989             0        0.2975      -1.22055             0       12.9439     -0.851388             0       6.18324             0             0      0.220752    1.0107e-15     0.0402097        102143        103181        202856   1.85179e-15
     0.043043       288.153       288.636     0.0586267         3.004      -5.44545             0      0.672369      -1.05501             0       12.3141     -0.950177             0       5.56055             0             0      0.220565   1.01428e-15       0.04102        102148        103182        203826   1.85835e-15
    0.0435435       288.161        288.64     0.0587318       3.16079      -5.00055             0       1.03964     -0.906491             0       12.2281     -0.872595             0       4.94129             0             0      0.220337   1.02066e-15     0.0420152        102153        103184        204531   1.87004e-15
     0.044044       288.169       288.644     0.0587918       3.31208      -4.55828             0       1.40508      -0.75967             0       12.1997     -0.784129             0       4.32743             0             0      0.220101   1.02735e-15     0.0430405        102157        103185        205218    1.8823e-15
    0.0445445        288.18       288.647     0.0583838       3.40644      -4.14335             0       1.75146     -0.630502             0       12.7687     -0.582877             0       3.76947             0             0      0.219793   1.03723e-15     0.0443789        102160        103187        205720   1.90041e-15
     0.045045       288.192        288.65      0.057843       3.49823      -3.73386             0       2.09336     -0.503955             0       13.3725     -0.379529             0       3.21796             0             0      0.219472   1.04749e-15     0.0457732        102164        103189        206212    1.9192e-15
    0.0455455       288.209        288.65     0.0559587       3.56402      -3.37942             0       2.38993     -0.403913             0       14.3283     -0.154997             0       2.73167             0             0      0.219021   1.06156e-15     0.0477338        102166        103191        206610   1.94498e-15