#           y             T         TMean   TPrime2Mean           U_x           U_y           U_z       UMean_x       UMean_y       UMean_z UPrime2Mea... UPrime2Mea... UPrime2Mea... UPrime2Mea... UPrime2Mea... UPrime2Mea...            O2           H2O          C3H8             p         pMean   pPrime2Mean           CO2
            0       288.516       288.396      0.207965       19.7668             0             0       13.3342             0             0        26.061             0             0             0             0             0      0.201737   5.90491e-16      0.122881        102493        103285        203294   1.08189e-15
  0.000500501       288.509       288.402       0.20869       19.9565      0.159674             0       13.3388    0.00875871             0       26.0656    -0.0286322             0     0.0607391             0             0      0.201408    5.9167e-16      0.124312        102492        103285        203276   1.08405e-15
     0.001001       288.502       288.408      0.209418       20.1462      0.319224             0       13.3435     0.0175209             0       26.0703    -0.0572411             0      0.121648             0             0      0.201077   5.92881e-16      0.125752        102492        103285        203258   1.08627e-15
    0.0015015       288.528        288.42      0.211938       20.3578      0.416518             0        13.354     0.0279976             0       26.1506    -0.0742089             0      0.267295             0             0      0.199623   6.10134e-16      0.132076        102491        103285        203198   1.11788e-15
     0.002002       288.554       288.432      0.214471       20.5683      0.513682             0       13.3646     0.0384686             0       26.2317    -0.0912848             0      0.413395             0             0      0.198165   6.27445e-16      0.138415        102490        103284        203138    1.1496e-15
    0.0025025       288.621       288.442      0.220221       20.5166      0.578628             0       13.3857     0.0474826             0        26.485     -0.135286             0      0.672129             0             0      0.195879   6.59168e-16       0.14835        102489        103284        203040   1.20772e-15
     0.003003       288.688       288.452      0.225963       20.4638      0.643783             0        13.407     0.0564645             0       26.7395       -0.1798             0      0.931722             0             0      0.193595   6.90877e-16      0.158283        102487        103284        202941   1.26582e-15
    0.0035035       288.754       288.458      0.230357       20.2209      0.743723             0       13.4497     0.0601197             0       27.2009     -0.309366             0       1.33362             0             0      0.191416    7.2009e-16      0.167754        102485        103283        202803   1.31934e-15
     0.004004       288.821       288.464      0.234655       19.9765      0.844051             0       13.4925     0.0637289             0       27.6632     -0.439779             0       1.73673             0             0      0.189245   7.49229e-16      0.177197        102483        103283        202664   1.37273e-15
    0.0045045        288.87       288.471      0.227151       19.5468      0.992445             0       13.5476     0.0616385             0       28.2405     -0.675118             0       2.28999             0             0      0.187881   7.69172e-16      0.183126        102481        103282        202493   1.40927e-15
   0.00500501       288.918       288.478      0.219563       19.1154       1.14122             0       13.6025     0.0595309             0       28.8161     -0.910852             0       2.84432             0             0      0.186528   7.88998e-16       0.18901        102480        103281        202323   1.44559e-15
   0.00550551       288.937       288.487      0.203759       18.5154       1.32774             0       13.6381     0.0557211             0       29.2096      -1.18567             0       3.50483             0             0      0.186204   7.97229e-16      0.190418        102478        103281        202139   1.46067e-15
   0.00600601       288.955       288.495      0.187995        17.914       1.51444             0       13.6731     0.0519493             0       29.5957      -1.45947             0       4.16561             0             0      0.185888   8.05375e-16      0.191793        102477        103280        201956    1.4756e-15
   0.00650651        288.95       288.503      0.175599       17.1986       1.71522             0       13.6536     0.0513048             0       29.3773      -1.64958             0       4.84856             0             0      0.186191   8.06512e-16      0.190474        102477        103279        201758   1.47768e-15
   0.00700701       288.944       288.511      0.163282       16.4834       1.91559             0       13.6331     0.0507302             0       29.1477       -1.8376             0       5.53092             0             0      0.186496   8.07629e-16      0.189148        102476        103278        201559   1.47973e-15
   0.00750751       288.926       288.519      0.156548       15.7843       2.08719             0       13.5439     0.0550803             0       28.1307      -1.87883             0       6.17071             0             0      0.186907   8.07328e-16       0.18736        102477        103277        201350   1.47918e-15
   0.00800801       288.909       288.527      0.149874       15.0878       2.25768             0       13.4538     0.0594653             0       27.1056      -1.91873             0       6.80981             0             0      0.187318   8.07033e-16      0.185576        102478        103276        201140   1.47864e-15
   0.00850851       288.875       288.536      0.146821       14.5502       2.35973             0       13.3141         0.066             0       25.5877      -1.87635             0       7.40643             0             0      0.187657   8.07057e-16      0.184101        102479        103275        200929   1.47868e-15
   0.00900901       288.841       288.545      0.143806       14.0164        2.4605             0       13.1739      0.072507             0       24.0683      -1.83424             0       8.00277             0             0         0.188   8.07019e-16      0.182611        102480        103274        200718   1.47861e-15
   0.00950951       288.776       288.556      0.142839       13.6834       2.49108             0       13.0115     0.0774985             0       22.4641      -1.80706             0       8.58332             0             0      0.188545   8.03593e-16      0.180237        102481        103273        200508   1.47233e-15
      0.01001        288.71       288.567      0.141896       13.3532       2.52067             0       12.8488     0.0824602             0       20.8609      -1.78038             0       9.16336             0             0       0.18911   7.99828e-16       0.17778        102482        103272        200297   1.46543e-15
    0.0105105       288.586       288.579      0.142131       13.1552       2.50196             0       12.6711     0.0859567             0       19.3012       -1.7782             0       9.71772             0             0      0.190621   7.79428e-16      0.171214        102483        103271        200083   1.42806e-15
     0.011011       288.459       288.592      0.142419        12.959       2.48192             0       12.4928      0.089489             0       17.7409      -1.77523             0       10.2706             0             0      0.192175   7.58283e-16      0.164456        102484        103270        199869   1.38932e-15
    0.0115115       288.228       288.604      0.145014       12.8435       2.40325             0       12.2908     0.0946182             0       16.1567      -1.73754             0       10.7558             0             0      0.195683   7.04065e-16      0.149204        102485        103269        199636   1.28998e-15
     0.012012       287.998       288.616      0.147627       12.7315        2.3239             0       12.0881     0.0997919             0       14.5725      -1.69878             0       11.2391             0             0      0.199166   6.50148e-16      0.134061        102485        103268        199402   1.19119e-15
    0.0125125       287.795       288.627      0.150977       12.7649       2.21701             0       11.8624      0.106775             0       12.9905      -1.61629             0       11.6412             0             0      0.201638   6.08506e-16      0.123311        102486        103268        199153    1.1149e-15
     0.013013       287.596       288.638      0.154256       12.8042       2.11049             0       11.6365      0.113728             0        11.414       -1.5341             0       12.0418             0             0      0.204045    5.6786e-16      0.112848        102486        103267        198904   1.04043e-15
    0.0135135       287.518       288.647       0.15484       13.0636       2.01798             0       11.4066      0.119572             0       10.0476      -1.46349             0       12.3829             0             0      0.203988     5.645e-16      0.113096        102486        103266        198634   1.03427e-15
     0.014014       287.442       288.656      0.155348       13.3243       1.92399             0        11.177      0.125411             0       8.69251      -1.39329             0       12.7214             0             0      0.203904   5.61654e-16      0.113462        102486        103266        198363   1.02905e-15
    0.0145145       287.418       288.663      0.153223       13.6313       1.77863             0       10.9544      0.131051             0       7.72751      -1.33789             0       12.9678             0             0      0.202875   5.76634e-16      0.117937        102486        103265        198079    1.0565e-15
     0.015015       287.396        288.67      0.151061       13.9299       1.63028             0       10.7318      0.136861             0       6.77584      -1.28152             0       13.2081             0             0      0.201806   5.92587e-16      0.122583        102486        103265        197795   1.08573e-15
    0.0155155       287.421       288.676      0.147728       13.9577       1.38519             0       10.5051      0.148176             0        6.2549      -1.19392             0       13.2507             0             0      0.199457   6.39949e-16      0.132794        102485        103265        197509   1.17251e-15
     0.016016       287.446       288.682      0.144408       13.9775       1.13823             0        10.278      0.159737             0       5.75029      -1.10667             0       13.2857             0             0      0.197119   6.87507e-16      0.142962        102484        103264        197222   1.25964e-15
    0.0165165       287.478       288.686      0.141529       13.7545      0.834554             0       10.0412      0.178743             0       5.73946      -1.02976             0       13.0891             0             0      0.195076   7.40978e-16      0.151846        102482        103264        196927   1.35761e-15
     0.017017       287.509       288.691      0.138697       13.5307      0.531256             0       9.80448      0.197849             0       5.74898     -0.957476             0       12.8878             0             0       0.19309   7.93487e-16       0.16048        102481        103264        196632   1.45382e-15
    0.0175175       287.513       288.693      0.137235       13.2859      0.238624             0       9.57087      0.219775             0       6.33639      -1.01638             0       12.5515             0             0      0.192733   8.18635e-16      0.162031        102480        103264        196322   1.49989e-15
     0.018018       287.517       288.696      0.135843       13.0413    -0.0519836             0       9.33776      0.241659             0       6.94304      -1.08176             0       12.2137             0             0      0.192415   8.43119e-16      0.163415        102478        103264        196012   1.54475e-15
    0.0185185       287.505       288.698      0.136335       12.8045     -0.288381             0       9.11778      0.262386             0       8.06489       -1.3205             0       11.8346             0             0      0.193131   8.49821e-16      0.160302        102477        103265        195699   1.55703e-15
     0.019019       287.492       288.699      0.136912       12.5667     -0.521363             0       8.89827       0.28309             0       9.19821      -1.56305             0       11.4549             0             0      0.193853   8.56225e-16       0.15716        102475        103265        195388   1.56876e-15
    0.0195195       287.484       288.701      0.139629       12.3066     -0.667889             0       8.69055      0.303206             0       10.6217      -1.90225             0       11.0603             0             0      0.194745   8.55069e-16      0.153283        102474        103265        195095   1.56665e-15
      0.02002       287.476       288.702      0.142443       12.0456     -0.808612             0       8.48302      0.323382             0        12.047      -2.23981             0       10.6654             0             0      0.195625   8.53795e-16      0.149457        102473        103266        194803   1.56431e-15
    0.0205205       287.481       288.704      0.147581       11.7624      -0.81005             0       8.27978      0.345016             0       13.5149      -2.53825             0       10.2623             0             0      0.196218   8.49701e-16      0.146876        102473        103266        194531   1.55681e-15
     0.021021       287.486       288.706      0.152842       11.4789      -0.80462             0        8.0769      0.366873             0       14.9727      -2.83083             0        9.8583             0             0      0.196813   8.45627e-16      0.144291        102473        103266        194262   1.54935e-15
    0.0215215       287.492       288.709      0.160914       11.1905     -0.642537             0       7.88225      0.393834             0       16.1999      -2.98961             0       9.43314             0             0      0.197434    8.4203e-16      0.141592        102474        103266        194033   1.54275e-15
     0.022022       287.498       288.712      0.169122       10.9049     -0.474354             0       7.68875      0.420701             0       17.4048      -3.13785             0       9.00831             0             0       0.19806   8.38491e-16       0.13887        102474        103267        193807   1.53627e-15
    0.0225225       287.496       288.718      0.180291       10.6815     -0.173627             0       7.52026      0.445522             0        18.125      -3.05699             0       8.59075             0             0      0.198806   8.36232e-16      0.135627        102476        103267        193639   1.53213e-15
     0.023023       287.494       288.723      0.191438       10.4621      0.132265             0        7.3528      0.470507             0       18.8297      -2.96954             0        8.1761             0             0      0.199545   8.34091e-16      0.132411        102477        103267        193474   1.52821e-15
    0.0235235       287.491       288.727      0.202119       10.3253      0.545265             0       7.20693      0.498893             0       19.2103      -2.74547             0       7.82197             0             0      0.200159   8.34382e-16      0.129744        102478        103267        193379   1.52874e-15
     0.024024       287.488       288.731      0.212658       10.1901      0.961599             0       7.06175      0.527529             0       19.5844      -2.51736             0       7.47103             0             0      0.200769   8.34755e-16      0.127091        102480        103267        193289   1.52943e-15
    0.0245245        287.48       288.735      0.220363       10.0859       1.44407             0       6.93028      0.561107             0       19.8269      -2.20931             0       7.18365             0             0      0.201313   8.36758e-16      0.124727        102480        103267        193277    1.5331e-15
     0.025025       287.473       288.738      0.227981       9.98138       1.92749             0       6.79921      0.594709             0       20.0704      -1.89742             0       6.89909             0             0      0.201844   8.38869e-16       0.12242        102481        103267        193270   1.53696e-15
    0.0255255       287.473       288.745      0.233931       9.87109         2.429             0       6.67556      0.628776             0       20.3303      -1.51263             0       6.66796             0             0      0.202122   8.43018e-16      0.121211        102482        103267        193349   1.54457e-15
     0.026026       287.474       288.752      0.239721        9.7594       2.92918             0       6.55182      0.663333             0         20.61      -1.13567             0       6.44223             0             0      0.202382    8.4724e-16       0.12008        102482        103267        193433    1.5523e-15
    0.0265265        287.49        288.76      0.242589       9.62223         3.405             0       6.42657      0.706823             0       21.2491     -0.901203             0        6.3147             0             0      0.202317   8.52794e-16      0.120361        102482        103266        193611   1.56248e-15
     0.027027       287.505       288.767      0.245166       9.48323       3.87768             0       6.30209      0.750463             0       21.9024     -0.678191             0       6.19541             0             0      0.202254   8.58385e-16      0.120634        102481        103266        193794   1.57272e-15
    0.0275275       287.517        288.77      0.242666       9.31192       4.29517             0       6.19129      0.796731             0       22.8052     -0.655808             0       6.22025             0             0      0.202221   8.64616e-16       0.12078        102481        103266        194071   1.58414e-15
     0.028028       287.528       288.772      0.239866       9.13944       4.70938             0       6.08302      0.842448             0       23.6867     -0.637673             0         6.252             0             0      0.202188   8.70866e-16      0.120921        102481        103265        194354   1.59559e-15
    0.0285285       287.535       288.768      0.232013       8.94726       5.06817             0       6.01766      0.878895             0       24.2099      -0.69116             0       6.40015             0             0      0.202175   8.77434e-16      0.120979        102480        103265        194731   1.60762e-15
     0.029029       287.541       288.764      0.224051       8.75536       5.42458             0         5.956      0.914276             0       24.6801     -0.740485             0       6.55236             0             0      0.202156   8.84104e-16      0.121061        102479        103264        195113   1.61984e-15
    0.0295295       287.547       288.757       0.21431       8.56793       5.74215             0       5.95439      0.932342             0         24.29     -0.722213             0       6.77068             0             0       0.20205   8.92435e-16      0.121523        102477        103263        195590   1.63511e-15
      0.03003       287.554       288.749      0.204612        8.3823       6.05788             0       5.95633      0.949284             0       23.8451     -0.697218             0       6.99022             0             0      0.201936    9.0095e-16      0.122019        102475        103263        196071   1.65071e-15
    0.0305305       287.565       288.742      0.195585       8.22491        6.3449             0       6.01402      0.948615             0       22.5413      -0.56689             0       7.22887             0             0        0.2017   9.12344e-16      0.123042        102474        103262        196621   1.67158e-15
     0.031031       287.576       288.735      0.186553       8.06937       6.62968             0       6.07421      0.947099             0       21.2086     -0.433336             0       7.46726             0             0      0.201464   9.23767e-16      0.124069        102473        103261        197172   1.69251e-15
    0.0315315       287.589        288.73       0.17745       7.94189       6.88048             0       6.17241       0.93277             0       19.4374      -0.25099             0       7.70162             0             0      0.201215   9.35646e-16      0.125154        102472        103260        197763   1.71428e-15
     0.032032       287.602       288.726      0.168326       7.81468       7.12742             0       6.27195      0.917991             0       17.6679    -0.0709596             0       7.93529             0             0      0.200966    9.4749e-16      0.126234        102470        103259        198355   1.73598e-15
    0.0325325       287.617       288.723      0.158892       7.69128       7.31795             0       6.39112      0.896611             0       15.9224     0.0751851             0       8.15881             0             0      0.200734   9.58809e-16      0.127242        102469        103259        198954   1.75672e-15
     0.033033       287.632        288.72      0.149511       7.56608       7.50295             0       6.51083      0.875106             0       14.1961      0.215857             0       8.38155             0             0      0.200497   9.70393e-16      0.128272        102468        103258        199550   1.77794e-15
    0.0335335        287.65       288.718       0.14089       7.41532       7.60977             0       6.63827      0.851838             0       12.7401      0.279077             0       8.59304             0             0      0.200187   9.85736e-16      0.129621        102468        103258        200118   1.80605e-15
     0.034034       287.668       288.716      0.132372       7.26074       7.71072             0       6.76595      0.828495             0       11.3057      0.336659             0       8.80323             0             0      0.199879   1.00118e-15      0.130961        102467        103257        200683   1.83435e-15
    0.0345345       287.686       288.716      0.125265       7.05374       7.73129             0       6.89705      0.804119             0       10.1676      0.316978             0       8.99552             0             0      0.199596     1.018e-15      0.132191        102467        103257        201221   1.86516e-15
     0.035035       287.703       288.715       0.11825       6.84267        7.7464             0       7.02893      0.779769             0       9.04332      0.291773             0       9.18513             0             0      0.199317   1.03447e-15      0.133402        102466        103257        201757   1.89534e-15
    0.0355355       287.724       288.715      0.112466       6.57761       7.68888             0       7.17123      0.755764             0       8.10355      0.193163             0       9.33903             0             0      0.199096   1.04641e-15      0.134364        102467        103257        202256   1.91721e-15
     0.036036       287.744       288.714      0.106755       6.31033        7.6268             0       7.31465      0.731923             0        7.1778     0.0898735             0       9.48643             0             0      0.198867   1.05854e-15      0.135361        102467        103257        202750   1.93944e-15
    0.0365365       287.773       288.714      0.101987       6.01446       7.50587             0       7.47262       0.71019             0       6.43288     -0.073733             0       9.55013             0             0      0.198536   1.07321e-15      0.136799        102468        103257        203174   1.96633e-15
     0.037037       287.801       288.714      0.097275       5.71712       7.38242             0       7.63078      0.688467             0       5.71391     -0.239562             0       9.60364             0             0      0.198205   1.08816e-15      0.138238        102469        103257        203593   1.99371e-15
    0.0375375       287.826       288.715     0.0932552       5.40126       7.22729             0       7.79127      0.666869             0       5.31989     -0.433203             0        9.5296             0             0      0.197874   1.10648e-15      0.139676        102470        103258        203943   2.02728e-15
     0.038038        287.85       288.715     0.0892682        5.0846       7.07189             0       7.95106      0.645308             0       4.95749      -0.62639             0       9.44462             0             0      0.197561    1.1242e-15      0.141041        102471        103258        204288   2.05975e-15
    0.0385385       287.859       288.717     0.0856786        4.7583       6.91314             0       8.10242      0.624202             0       4.97965      -0.81406             0       9.22665             0             0      0.197454    1.1346e-15      0.141505        102472        103259        204565    2.0788e-15
     0.039039       287.867       288.718     0.0820968       4.43432       6.75566             0       8.25265      0.603165             0       5.03386     -0.998454             0       8.99749             0             0      0.197358   1.14445e-15      0.141924        102474        103260        204836   2.09685e-15
    0.0395395       287.865       288.719     0.0786078       4.13758        6.6132             0       8.38959      0.582951             0       5.46704      -1.14414             0       8.63613             0             0      0.197381    1.1479e-15       0.14182        102475        103261        205033   2.10317e-15
      0.04004       287.862        288.72     0.0751294       3.84552       6.47191             0       8.52495        0.5628             0       5.93102      -1.28344             0       8.26532             0             0      0.197397   1.15146e-15      0.141751        102477        103262        205227   2.10969e-15
    0.0405405       287.858        288.72     0.0717721       3.60741       6.34411             0       8.64226      0.543362             0       6.74923      -1.34934             0       7.78591             0             0      0.197323    1.1563e-15      0.142074        102479        103263        205371   2.11855e-15
     0.041041       287.856        288.72     0.0684326       3.37452       6.21437             0       8.75711       0.52396             0       7.58671      -1.40768             0       7.29992             0             0      0.197194   1.16232e-15      0.142636        102481        103264        205513   2.12958e-15
    0.0415415        287.87       288.717     0.0652932       3.20021       6.06281             0       8.84437       0.50497             0       8.63977       -1.3815             0       6.74017             0             0      0.196447   1.18154e-15      0.145882        102483        103266        205626    2.1648e-15
     0.042042       287.886       288.714     0.0622006       3.02842       5.90407             0        8.9279      0.485773             0        9.6897      -1.34989             0       6.17787             0             0      0.195629   1.20251e-15      0.149441        102486        103267        205736   2.20322e-15
    0.0425425       287.919        288.71     0.0596194       2.88401       5.66701             0       8.97068      0.464327             0       10.7055      -1.25908             0       5.58769             0             0      0.194026   1.24246e-15      0.156409        102488        103268        205827   2.27641e-15
     0.043043       287.951       288.705     0.0571156       2.72707       5.42298             0       9.00979      0.442592             0       11.6993      -1.16639             0       5.00011             0             0      0.192389   1.28301e-15      0.163526        102491        103270        205920   2.35071e-15
    0.0435435       287.979         288.7      0.055434       2.43697       5.10496             0        9.0099      0.417796             0       12.4586      -1.05371             0       4.44012             0             0      0.190387   1.32997e-15       0.17223        102493        103271        206032   2.43676e-15
     0.044044       288.007       288.695     0.0538177       2.12357       4.78564             0       9.00766      0.392528             0       13.1878     -0.943193             0       3.88424             0             0      0.188393   1.37603e-15      0.180899        102495        103272        206147   2.52115e-15
    0.0445445       288.028        288.69     0.0528783        1.5687        4.4528             0       8.98099      0.362359             0       13.6049     -0.855083             0         3.371             0             0       0.18648   1.41273e-15      0.189217        102498        103274        206289   2.58839e-15
     0.045045       288.049       288.685     0.0519932       1.01321       4.11689             0       8.95216      0.331492             0       13.9969      -0.77039             0       2.86124             0             0      0.184642   1.44775e-15      0.197207        102500        103275        206430   2.65255e-15
    0.0455455       288.069       288.683     0.0516588      0.451457       3.74989             0       8.90145      0.293558             0       14.1354     -0.720249             0       2.38654             0             0      0.183569   1.46576e-15      0.201874        102502        103275        206564   2.68554e-15