#           y             T         TMean   TPrime2Mean           U_x           U_y           U_z       UMean_x       UMean_y       UMean_z UPrime2Mea... UPrime2Mea... UPrime2Mea... UPrime2Mea... UPrime2Mea... UPrime2Mea...            O2           H2O          C3H8             p         pMean   pPrime2Mean           CO2
  1.11022e-19       287.647       288.116      0.126259       21.2094  -4.06331e-16             0       19.6095   -2.0649e-16             0       24.5874  -6.23842e-17             0   4.62712e-16             0             0      0.229985   2.43829e-18   6.46179e-05        102049        103238        190912   4.46739e-18
  0.000500501       287.647       288.118       0.12813       21.1979    -0.0180983             0       19.6123     0.0587832             0       24.6398    -0.0373654             0     0.0547311             0             0      0.229961   3.62773e-18   0.000170329        102049        103238        190861   6.64668e-18
     0.001001       287.648        288.12       0.13001       21.1863      -0.03621             0       19.6151      0.117566             0       24.6923    -0.0747163             0      0.109623             0             0      0.229936   4.82429e-18   0.000277448        102049        103238        190809   8.83899e-18
    0.0015015       287.649       288.127      0.136674       21.1529     -0.060971             0       19.6246      0.176297             0       24.8435     -0.104783             0      0.244567             0             0       0.22975   9.57071e-18    0.00108711        102050        103237        190654   1.75353e-17
     0.002002        287.65       288.133      0.143345       21.1195    -0.0857734             0       19.6341      0.235027             0       24.9956     -0.134852             0      0.379942             0             0      0.229561    1.4348e-17    0.00191005        102050        103237        190498   2.62881e-17
    0.0025025       287.661       288.146      0.151772       21.0519     -0.120906             0       19.6498      0.293578             0       25.3387     -0.165499             0      0.622412             0             0       0.22861   2.67996e-17    0.00604135        102051        103237        190273    4.9102e-17
     0.003003       287.672       288.158       0.16018       20.9841      -0.15621             0       19.6656      0.352128             0       25.6828     -0.196063             0      0.865603             0             0      0.227648   3.93176e-17     0.0102245        102051        103236        190049   7.20371e-17
    0.0035035       287.718       288.176       0.16536       20.8789     -0.220038             0       19.6942      0.410588             0       26.1947     -0.213019             0       1.22822             0             0      0.224709    6.2807e-17     0.0230041        102053        103236        189803   1.15074e-16
     0.004004       287.764       288.194      0.170503       20.7736     -0.284357             0       19.7228      0.469062             0       26.7054     -0.229803             0       1.59182             0             0      0.221756   8.63212e-17     0.0358444        102054        103235        189557   1.58157e-16
    0.0045045        287.83       288.206       0.17102       20.6553     -0.409556             0       19.7434      0.529209             0       27.0552     -0.225131             0       2.07792             0             0      0.217073   1.12901e-16     0.0562047        102055        103235        189290   2.06855e-16
   0.00500501       287.896       288.218      0.171502       20.5369      -0.53519             0       19.7637      0.589373             0       27.4001     -0.219825             0       2.56488             0             0      0.212395   1.39388e-16     0.0765432        102057        103234        189022   2.55385e-16
   0.00550551       287.924       288.223      0.168518       20.4247     -0.703789             0       19.7424      0.651212             0       27.2613     -0.151743             0       3.13691             0             0      0.208215   1.56708e-16     0.0947195        102059        103233        188722   2.87119e-16
   0.00600601       287.951       288.227      0.165536       20.3148     -0.871068             0         19.72       0.71311             0       27.1159    -0.0817631             0       3.70884             0             0      0.204048   1.73922e-16      0.112836        102061        103232        188421   3.18658e-16
   0.00650651       287.936       288.232      0.162758       20.3905     -0.929702             0       19.6104      0.779828             0       26.4315      0.144538             0       4.27184             0             0      0.201013   1.82351e-16      0.126031        102064        103231        188093   3.34102e-16
   0.00700701       287.921       288.238      0.160001       20.4698     -0.987989             0       19.4989      0.846647             0       25.7438      0.374904             0       4.83401             0             0      0.197979    1.9076e-16      0.139221        102067        103231        187765   3.49508e-16
   0.00750751       287.907        288.25      0.158698       20.8037      -1.02179             0       19.2534      0.920526             0       24.8295      0.891554             0       5.33841             0             0      0.195033   1.97709e-16       0.15203        102071        103230        187366   3.62239e-16
   0.00800801       287.893       288.263      0.157467       21.1285      -1.04866             0       19.0057      0.994391             0       23.9176       1.41023             0       5.84233             0             0      0.192079    2.0471e-16      0.164875        102076        103229        186967   3.75067e-16
   0.00850851        287.92       288.283      0.160626       20.8977     -0.649512             0       18.6248       1.06739             0       23.1565       2.05325             0       6.31604             0             0      0.188612   2.14928e-16      0.179949        102080        103229        186500   3.93787e-16
   0.00900901       287.946       288.303      0.163865       20.6518     -0.246504             0       18.2424       1.13987             0       22.4044       2.68836             0       6.79189             0             0       0.18515   2.25181e-16         0.195        102085        103228        186033   4.12574e-16
   0.00950951       287.976       288.319      0.171425       19.5863         0.367             0       17.7805       1.18391             0       22.1477       2.89208             0       7.38457             0             0      0.181971   2.37405e-16       0.20882        102089        103227        185606    4.3497e-16
      0.01001       288.006       288.335      0.178951       18.5169      0.972662             0       17.3188       1.22729             0       21.9164       3.08441             0       7.98194             0             0      0.178805   2.49757e-16      0.222588        102093        103226        185181   4.57602e-16
    0.0105105       288.004       288.339      0.184802       17.2569       1.19408             0       16.8703       1.23878             0       22.9334       2.71826             0       8.80838             0             0      0.176217   2.68429e-16      0.233838        102097        103224        184882   4.91812e-16
     0.011011       288.004       288.343      0.190614       15.9886       1.41921             0       16.4222       1.24997             0       23.9928       2.34937             0       9.63748             0             0      0.173636   2.87432e-16       0.24506        102100        103223        184589   5.26628e-16
    0.0115115       288.022       288.331      0.194735       14.3433       1.80966             0       15.9928        1.2479             0       26.9327       1.85837             0       10.5843             0             0      0.171328   3.21143e-16      0.255098        102102        103222        184534   5.88393e-16
     0.012012       288.041       288.319      0.199005       12.6927         2.203             0       15.5631       1.24584             0       29.9092       1.37052             0       11.5316             0             0      0.169061   3.54918e-16      0.264952        102104        103220        184488   6.50277e-16
    0.0125125       288.073         288.3      0.209335       10.8228       2.71417             0       15.1168       1.24378             0        34.373       1.01066             0       12.5039             0             0      0.168503   3.91341e-16      0.267377        102103        103218        184760   7.17009e-16
     0.013013       288.105       288.282      0.219904        8.9713       3.21288             0       14.6721       1.24121             0       38.8375      0.648815             0       13.4817             0             0      0.168017   4.27388e-16      0.269491        102103        103217        185040   7.83054e-16
    0.0135135       288.098       288.271      0.239364       7.80814        3.2454             0       14.2877       1.21886             0       43.3339      0.212412             0       14.6691             0             0      0.170212   4.49372e-16      0.259948        102101        103215        185640   8.23334e-16
     0.014014        288.09       288.262      0.258868       6.67127       3.26141             0        13.906       1.19592             0       47.7964      -0.22856             0        15.866             0             0      0.172423    4.7085e-16      0.250337        102099        103213        186249   8.62685e-16
    0.0145145       288.068       288.261        0.2799       6.44738       2.70418             0       13.6164       1.15256             0       51.0824      -0.82815             0       17.3908             0             0       0.17518   4.74748e-16      0.238348        102096        103210        187164   8.69827e-16
     0.015015       288.047        288.26      0.300817       6.24199       2.13569             0       13.3275       1.10924             0       54.3267       -1.4272             0       18.9187             0             0      0.177875   4.78401e-16       0.22663        102093        103208        188088    8.7652e-16
    0.0155155       288.055       288.263      0.318009       6.63486       1.20269             0       13.0585       1.06704             0        56.221      -2.00873             0       20.5437             0             0       0.17856   4.74144e-16      0.223651        102089        103205        189314   8.68721e-16
     0.016016       288.063       288.267      0.335071       7.03807      0.264134             0       12.7898       1.02541             0         58.08      -2.58653             0       22.1676             0             0      0.179171   4.70076e-16      0.220994        102086        103203        190548   8.61268e-16
    0.0165165       288.098       288.273      0.348233       7.75398     -0.842334             0       12.5263       1.00132             0       58.8716       -3.0513             0       23.7578             0             0      0.177551   4.71726e-16      0.228038        102082        103201        192035    8.6429e-16
     0.017017       288.132        288.28      0.361262       8.47507      -1.95124             0       12.2635      0.978001             0       59.6421      -3.51414             0        25.348             0             0        0.1759   4.73597e-16      0.235219        102079        103198        193529   8.67719e-16
    0.0175175       288.168        288.29      0.370523       9.34334      -3.12942             0       12.0178      0.976844             0       59.8139       -3.9221             0       26.9384             0             0      0.173361   4.81767e-16      0.246255        102077        103196        195173   8.82686e-16
     0.018018       288.203         288.3       0.37963       10.2133      -4.30814             0       11.7719      0.976646             0       59.9664      -4.33013             0       28.5296             0             0      0.170846   4.89918e-16      0.257193        102074        103194        196819   8.97621e-16
    0.0185185       288.221       288.312      0.384592       11.1289       -5.5011             0       11.5216       1.00213             0       59.6005      -4.74025             0        30.143             0             0      0.168931   4.97593e-16      0.265519        102074        103193        198543   9.11683e-16
     0.019019       288.238       288.323      0.389391        12.042      -6.69191             0       11.2703       1.02875             0       59.2017      -5.14867             0       31.7545             0             0      0.167056   5.05177e-16      0.273668        102073        103191        200266   9.25578e-16
    0.0195195       288.236       288.334      0.390038       12.8905      -7.82804             0       10.9917       1.08418             0       57.9687      -5.51391             0       33.3191             0             0      0.166212   5.10465e-16      0.277339        102073        103189        202008   9.35268e-16
      0.02002       288.234       288.344      0.390525       13.7315      -8.95733             0       10.7121       1.14103             0       56.7038      -5.87362             0       34.8788             0             0       0.16541   5.15743e-16      0.280825        102073        103187        203747   9.44938e-16
    0.0205205       288.215       288.353      0.387187       14.3917      -9.92238             0       10.4085        1.2321             0       54.6751      -6.10034             0         36.32             0             0      0.165636   5.20757e-16      0.279845        102075        103185        205453   9.54124e-16
     0.021021       288.196       288.362      0.383862       15.0402      -10.8771             0       10.1051       1.32465             0       52.6368      -6.31713             0       37.7562             0             0       0.16591   5.25836e-16      0.278653        102077        103183        207154   9.63429e-16
    0.0215215       288.159       288.371      0.380803       15.4211      -11.5974             0       9.80731       1.45114             0        50.382      -6.30721             0       39.0756             0             0      0.167293   5.32403e-16      0.272637        102079        103181        208746   9.75461e-16
     0.022022       288.121        288.38      0.377918        15.787      -12.3049             0       9.51128       1.57904             0        48.133      -6.28561             0       40.3904             0             0      0.168753   5.39223e-16       0.26629        102082        103180        210329   9.87957e-16
    0.0225225       288.052       288.388      0.378794       15.8247      -12.7355             0       9.25382       1.73762             0       46.0119      -6.01006             0        41.607             0             0      0.171869   5.51542e-16      0.252742        102085        103179        211732   1.01053e-15
     0.023023       287.983       288.397      0.379703       15.8465      -13.1504             0       8.99881       1.89731             0       43.8886      -5.72405             0       42.8223             0             0      0.175015     5.641e-16      0.239065        102089        103178        213124   1.03354e-15
    0.0235235       287.905       288.402       0.38131       15.5374      -13.2368             0       8.79443       2.07987             0       41.7199      -5.22089             0       44.0132             0             0       0.17877   5.81609e-16      0.222741        102094        103176        214288   1.06562e-15
     0.024024       287.827       288.406      0.382728       15.2146      -13.3084             0       8.59201       2.26344             0       39.5413      -4.70496             0       45.2052             0             0      0.182493   5.99644e-16      0.206554        102100        103175        215439   1.09866e-15
    0.0245245       287.755       288.408      0.380422       14.6226      -13.0867             0       8.42844       2.46708             0       37.1677      -3.93592             0       46.4187             0             0      0.185587    6.2812e-16      0.193102        102107        103175        216314   1.15083e-15
     0.025025       287.684       288.409      0.377935       14.0215      -12.8538             0       8.26631       2.67179             0        34.798       -3.1488             0       47.6347             0             0      0.188655   6.57319e-16      0.179763        102113        103174        217169   1.20433e-15
    0.0255255       287.613       288.408      0.372013       13.2464      -12.4093             0       8.13161       2.89687             0       32.5033      -2.01826             0       48.8985             0             0      0.191229   7.00263e-16      0.168568        102120        103173        217629   1.28301e-15
     0.026026       287.544       288.407       0.36607       12.4666      -11.9572             0       7.99821       3.12294             0       30.2409     -0.866741             0       50.1674             0             0      0.193756    7.4339e-16      0.157581        102126        103173        218062   1.36203e-15
    0.0265265       287.492       288.404      0.359766        11.599       -11.366             0       7.88858       3.36729             0       28.5666      0.667398             0       51.5302             0             0      0.195414   7.89879e-16      0.150372        102131        103172        218015   1.44721e-15
     0.027027       287.442         288.4      0.353495       10.7307      -10.7706             0       7.77961       3.61224             0       26.9457       2.22195             0       52.8975             0             0      0.197017   8.35799e-16      0.143405        102136        103172        217940   1.53134e-15
    0.0275275       287.424       288.394      0.347803       9.85004      -10.0999             0       7.68224       3.86767             0        26.258       4.13415             0       54.3433             0             0      0.197646    8.7175e-16      0.140667        102140        103172        217387   1.59721e-15
     0.028028       287.409       288.388      0.342083       8.97251      -9.42795             0       7.58457       4.12314             0       25.6227       6.05948             0       55.7838             0             0      0.198238    9.0694e-16      0.138096        102143        103173        216808   1.66168e-15
    0.0285285       287.427       288.381      0.335895       8.14835      -8.73395             0       7.48178       4.37913             0       25.8705       8.20597             0       57.1346             0             0      0.198185   9.29282e-16      0.138327        102147        103173        215811   1.70262e-15
     0.029029       287.447       288.375      0.329632       7.33046      -8.04289             0       7.37824       4.63486             0       26.1566       10.3521             0       58.4685             0             0      0.198111   9.51194e-16      0.138647        102150        103173        214797   1.74276e-15
    0.0295295       287.485        288.37      0.322163       6.61447      -7.39959             0       7.26236       4.88627             0       27.0661        12.492             0       59.5271             0             0      0.197707   9.66115e-16      0.140402        102153        103174        213515    1.7701e-15
      0.03003       287.524       288.365      0.314699       5.90733      -6.76249             0       7.14606       5.13742             0        28.002       14.6183             0       60.5654             0             0       0.19729   9.80607e-16      0.142218        102156        103175        212224   1.79665e-15
    0.0305305       287.569       288.361      0.307312       5.33885      -6.22237             0       7.02324       5.38457             0       29.3517       16.5324             0       61.2862             0             0      0.196653   9.88379e-16      0.144986        102159        103176        210785   1.81089e-15
     0.031031       287.615       288.357      0.299998       4.77922      -5.68948             0       6.90046       5.63142             0       30.7235       18.4252             0       61.9899             0             0         0.196   9.95807e-16      0.147824        102161        103177        209345    1.8245e-15
    0.0315315       287.661       288.353      0.293769       4.35354       -5.2658             0       6.77816        5.8738             0       32.4289       19.9977             0       62.4345             0             0      0.195102   9.98021e-16      0.151729        102163        103178        207895   1.82856e-15
     0.032032       287.708       288.349      0.287679       3.93507      -4.84818             0        6.6559       6.11553             0       34.1562       21.5458             0       62.8647             0             0      0.194196   1.00003e-15      0.155672        102165        103179        206454   1.83225e-15
    0.0325325       287.746       288.343      0.283608       3.62199      -4.51916             0        6.5343       6.34765             0       36.2019       22.7363             0       63.0835             0             0      0.193164   9.99077e-16      0.160156        102166        103181        205134   1.83049e-15
     0.033033       287.785       288.337      0.279786       3.31339      -4.19357             0       6.41245        6.5784             0       38.2642       23.8982             0       63.2859             0             0      0.192125   9.97997e-16      0.164672        102168        103182        203827   1.82852e-15
    0.0335335       287.821       288.329       0.27948       3.06818      -3.91651             0       6.28701       6.78966             0       40.5603       24.6556             0       63.2557             0             0      0.190985   9.95168e-16       0.16963        102169        103184        202698   1.82333e-15
     0.034034       287.858       288.322      0.279432       2.82505       -3.6406             0       6.16084       6.99859             0       42.8606       25.3777             0       63.2026             0             0      0.189829   9.92248e-16      0.174655        102170        103186        201585   1.81798e-15
    0.0345345       287.905       288.314      0.282906       2.61059      -3.38036             0       6.02461       7.17572             0       45.2177       25.6146             0       62.8359             0             0      0.188464   9.88088e-16      0.180593        102171        103188        200690   1.81036e-15
     0.035035       287.951       288.305      0.286494       2.39722      -3.12131             0       5.88685       7.34946             0       47.5669       25.8107             0       62.4397             0             0      0.187116   9.83961e-16      0.186454        102172        103190        199813    1.8028e-15
    0.0355355       287.993       288.298      0.291597       2.19824      -2.87805             0        5.7289       7.47825             0       49.8097       25.4658             0       61.6525             0             0      0.186002    9.8028e-16      0.191295        102173        103193        199169   1.79606e-15
     0.036036       288.034       288.292      0.296584       2.00098      -2.63813             0       5.56842       7.60274             0       52.0391       25.0792             0       60.8316             0             0      0.184928    9.7672e-16      0.195963        102175        103196        198541   1.78953e-15
    0.0365365       288.059       288.287      0.300063       1.82591      -2.44112             0       5.37532       7.67176             0       54.0942       24.1554             0       59.5748             0             0      0.184369   9.74714e-16      0.198395        102176        103199        198112   1.78586e-15
     0.037037       288.083       288.283      0.303353       1.65245      -2.24968             0       5.17886       7.73592             0       56.1352       23.1934             0       58.2818             0             0      0.183808   9.72687e-16      0.200837        102177        103202        197696   1.78214e-15
    0.0375375       288.102       288.281      0.304272        1.4991      -2.12786             0       4.94027       7.73931             0       58.0002       21.7536             0       56.5348             0             0      0.183219   9.70403e-16      0.203397        102179        103206        197434   1.77796e-15
     0.038038       288.121       288.279      0.305077       1.34478      -2.01158             0       4.69756       7.73777             0       59.8569       20.2867             0       54.7523             0             0       0.18262    9.6809e-16         0.206        102180        103210        197184   1.77372e-15
    0.0385385       288.139       288.278      0.304496       1.17882      -1.96274             0       4.40483       7.67626             0       61.6111       18.4892             0       52.5374             0             0        0.1819   9.65422e-16      0.209132        102182        103214        197072   1.76883e-15
     0.039039       288.156       288.276      0.303696       1.00951      -1.91796             0       4.10754       7.60994             0       63.3627         16.68             0       50.2923             0             0      0.181201   9.62848e-16      0.212169        102183        103218        196969   1.76412e-15
    0.0395395       288.167       288.275      0.300309      0.800567      -1.92107             0       3.75638       7.48687             0       65.0829       14.7328             0       47.6888             0             0      0.180761   9.61392e-16      0.214083        102184        103222        196975   1.76145e-15
      0.04004       288.177       288.275      0.296559      0.591958      -1.92694             0       3.40153       7.35895             0       66.7828       12.7823             0       45.0654             0             0      0.180342   9.60038e-16      0.215904        102186        103227        196985   1.75897e-15
    0.0405405       288.184       288.277      0.288628      0.387166      -1.96435             0       3.00409        7.1752             0        68.249       10.7941             0       42.2127             0             0      0.180172   9.59859e-16      0.216644        102187        103232        197054   1.75864e-15
     0.041041       288.192       288.278       0.28049      0.191371      -2.00185             0       2.60522       6.98656             0       69.6506       8.80422             0       39.3471             0             0      0.180015   9.59782e-16      0.217327        102188        103237        197122    1.7585e-15
    0.0415415       288.201       288.283      0.270028     0.0962887      -2.04035             0       2.19017       6.74313             0       70.3295        6.7949             0       36.3383             0             0      0.180005   9.60842e-16      0.217368        102189        103242        197192   1.76044e-15
     0.042042       288.211       288.288      0.259521     0.0174798      -2.07561             0       1.77548       6.49507             0        70.924       4.79127             0        33.322             0             0      0.180018   9.62104e-16      0.217314        102189        103247        197264   1.76276e-15
    0.0425425       288.227       288.296      0.248516       0.11613      -2.07552             0       1.36476       6.19644             0       70.5993       2.84965             0       30.2249             0             0      0.180265   9.65573e-16      0.216237        102190        103252        197348   1.76911e-15
     0.043043       288.243       288.305      0.237401      0.228977        -2.071             0      0.954263       5.89415             0       70.2289      0.925111             0       27.1315             0             0      0.180538   9.69212e-16      0.215054        102190        103257        197437   1.77578e-15
    0.0435435       288.253       288.318      0.225105      0.492718      -2.01952             0       0.54615       5.55303             0       69.3738     -0.817984             0       24.0775             0             0      0.181069   9.74658e-16      0.212744        102190        103263        197579   1.78576e-15
     0.044044       288.262       288.332      0.212797      0.758926      -1.96493             0      0.139819       5.20848             0       68.4723      -2.52135             0        21.041             0             0      0.181627    9.8036e-16      0.210319        102190        103268        197727    1.7962e-15
    0.0445445       288.257        288.35      0.200364       1.05071       -1.8781             0     -0.248045       4.82836             0       67.0909        -3.813             0       18.1866             0             0      0.182459   9.88701e-16      0.206702        102190        103272        197934   1.81149e-15
     0.045045       288.252       288.367      0.188336       1.33521      -1.78916             0     -0.630518       4.44402             0       65.6193      -5.03838             0       15.3582             0             0      0.183288   9.97126e-16      0.203095        102190        103277        198148   1.82692e-15
    0.0455455       288.245       288.381        0.1804       1.54607      -1.67902             0     -0.958482       4.01703             0       63.2351      -5.59381             0       12.7939             0             0      0.184096    1.0064e-15      0.199582        102190        103282        198431   1.84391e-15