#           y             T         TMean   TPrime2Mean           U_x           U_y           U_z       UMean_x       UMean_y       UMean_z UPrime2Mea... UPrime2Mea... UPrime2Mea... UPrime2Mea... UPrime2Mea... UPrime2Mea...            O2           H2O          C3H8             p         pMean   pPrime2Mean           CO2
  1.11022e-19       287.558       288.036     0.0906483       23.8323  -8.89164e-16             0       22.2588  -3.01593e-16             0       11.2757   1.52669e-16             0   1.11918e-16             0             0          0.23   1.25799e-19    1.3075e-06        101873        103207        164567   2.30487e-19
  0.000500501       287.558       288.036     0.0906933        23.829     0.0538295             0       22.2602     0.0149915             0        11.299     -0.156112             0     0.0312533             0             0      0.229999   2.18859e-19   5.10675e-06        101873        103207        164501    4.0099e-19
     0.001001       287.558       288.037     0.0907393       23.8257      0.107703             0       22.2616     0.0299828             0       11.3224     -0.312234             0     0.0626354             0             0      0.229998   3.12597e-19   8.99278e-06        101873        103207        164435   5.72736e-19
    0.0015015       287.556       288.041     0.0913613        23.809      0.183614             0       22.2645     0.0449181             0       11.3811     -0.473068             0      0.158331             0             0      0.229987   7.44919e-19   5.61786e-05        101874        103206        164257   1.36483e-18
     0.002002       287.553       288.044     0.0920035       23.7923      0.259634             0       22.2674     0.0598444             0       11.4402     -0.633982             0      0.254456             0             0      0.229976   1.18072e-18   0.000104615        101874        103206        164079    2.1633e-18
    0.0025025       287.539       288.058     0.0976887       23.7741      0.362784             0       22.2735     0.0725104             0       11.6001     -0.814635             0       0.45728             0             0      0.229893   2.48292e-18   0.000464408        101875        103206        163865   4.54918e-18
     0.003003       287.526       288.072      0.103457       23.7557      0.466398             0       22.2796     0.0851767             0       11.7607     -0.995599             0      0.661273             0             0      0.229809    3.7947e-18   0.000831893        101876        103205        163651    6.9526e-18
    0.0035035       287.481       288.095      0.122923       23.6968      0.646765             0        22.301     0.0978802             0       12.0297      -1.22793             0       1.05888             0             0      0.229431   6.69229e-18    0.00247365        101877        103205        163457   1.22615e-17
     0.004004       287.437       288.117      0.142508       23.6378      0.827181             0       22.3226      0.110552             0       12.2995      -1.46112             0       1.45831             0             0      0.229048   9.60565e-18    0.00413936        101878        103204        163264   1.75993e-17
    0.0045045       287.358       288.132      0.176699       23.5732       1.01382             0       22.3752      0.119332             0       12.6786      -1.80243             0       2.08476             0             0      0.227982   1.44743e-17    0.00877534        101880        103203        163156   2.65196e-17
   0.00500501        287.28       288.147        0.2109       23.5084       1.19944             0       22.4284      0.128167             0       13.0577      -2.14376             0       2.71127             0             0        0.2269   1.93676e-17     0.0134784        101881        103202        163049   3.54851e-17
   0.00550551       287.196       288.152      0.246139       23.4269       1.28521             0       22.5368      0.142448             0       13.4326      -2.48811             0        3.3444             0             0       0.22429   2.67123e-17      0.024824        101883        103200        162954    4.8942e-17
   0.00600601       287.113       288.157      0.281134       23.3435       1.36808             0        22.644      0.156725             0       13.8054      -2.83221             0       3.97606             0             0      0.221651   3.40898e-17     0.0362993        101885        103199        162857   6.24588e-17
   0.00650651       287.071       288.159      0.296068       23.1018       1.21284             0       22.6596      0.170815             0       14.0011      -3.15567             0       4.48726             0             0      0.216556   4.41667e-17     0.0584522        101890        103198        162663   8.09217e-17
   0.00700701        287.03       288.161      0.310426       22.8612       1.05103             0       22.6708      0.184942             0       14.1916      -3.47645             0       4.99728             0             0      0.211411    5.4298e-17     0.0808208        101895        103197        162467    9.9484e-17
   0.00750751       287.125       288.187      0.284259       22.6923       0.42645             0       22.3674      0.201756             0       14.0131      -3.60888             0        5.4242             0             0      0.202774   6.82543e-17      0.118376        101900        103195        162210   1.25055e-16
   0.00800801       287.221       288.213      0.257849       22.5188     -0.199959             0       22.0554      0.218786             0       13.8243      -3.73627             0       5.85069             0             0      0.194105   8.22665e-17      0.156067        101906        103194        161951   1.50728e-16
   0.00850851       287.382       288.254      0.216462       22.0656     -0.939012             0       21.2182      0.249088             0       13.0039      -3.55389             0       6.25062             0             0      0.183514   9.97211e-17      0.202114        101911        103193        161611   1.82708e-16
   0.00900901       287.543       288.293      0.175539       21.5941      -1.66714             0       20.3723      0.279311             0       12.1745      -3.36626             0       6.64487             0             0      0.172957   1.17154e-16      0.248013        101916        103192        161266   2.14648e-16
   0.00950951       287.646       288.293      0.159951        20.118      -1.79909             0       19.0512      0.305223             0       10.8603      -2.89212             0       6.72904             0             0      0.164253   1.33401e-16      0.285857        101921        103192        160708   2.44416e-16
      0.01001       287.746       288.292      0.144946       18.6373        -1.919             0       17.7298       0.33045             0       9.55893      -2.41983             0       6.80696             0             0      0.155605   1.49518e-16      0.323457        101925        103191        160146   2.73945e-16
    0.0105105       287.743       288.247      0.158501       16.9267      -1.44926             0       16.3927      0.322148             0       8.88837      -2.03882             0        6.5789             0             0      0.149713   1.59233e-16      0.349072        101926        103191        159405   2.91744e-16
     0.011011       287.737       288.202      0.172515       15.2374     -0.985216             0       15.0662       0.31264             0       8.25088      -1.67408             0       6.35794             0             0      0.143826   1.68797e-16      0.374668        101927        103192        158665   3.09268e-16
    0.0115115       287.649       288.142      0.206901       14.4942     -0.774243             0       14.2165      0.249536             0       9.08407      -2.03304             0       6.45265             0             0      0.138136   1.71665e-16      0.399411        101925        103192        157941   3.14521e-16
     0.012012       287.561       288.083      0.241394       13.7649     -0.564197             0       13.3796      0.186536             0       9.94996      -2.40648             0        6.5603             0             0      0.132451   1.74467e-16      0.424128        101923        103191        157217   3.19655e-16
    0.0125125       287.487       288.048      0.280218       13.6017      -0.39186             0       13.0632      0.127818             0       12.1456       -3.3689             0       7.19471             0             0      0.127014   1.74596e-16      0.447764        101920        103191        156478   3.19892e-16
     0.013013       287.413       288.015      0.318528       13.4426     -0.214822             0       12.7548     0.0690466             0       14.3728      -4.33508             0       7.84106             0             0      0.121688   1.74646e-16      0.470921        101918        103190        155738   3.19984e-16
    0.0135135        287.35       288.019      0.337569       13.4382      0.138339             0       12.7482    0.00828518             0       17.7793      -5.44197             0       8.93494             0             0        0.1205   1.71738e-16      0.476086        101917        103189        154950   3.14656e-16
     0.014014       287.287       288.025      0.355854       13.4511      0.490851             0       12.7486    -0.0520677             0       21.1908      -6.54497             0       10.0406             0             0      0.119469   1.68755e-16      0.480572        101915        103187        154161    3.0919e-16
    0.0145145        287.25       288.051      0.347894        14.066      0.820781             0        12.994    -0.0982367             0       24.7774       -7.5131             0       11.5566             0             0      0.123867   1.63141e-16       0.46145        101913        103185        153362   2.98905e-16
     0.015015        287.22       288.076      0.339723       14.7146       1.16039             0       13.2459     -0.144123             0       28.3397       -8.4727             0        13.082             0             0       0.12827   1.57543e-16      0.442306        101912        103183        152563   2.88649e-16
    0.0155155       287.389       288.106      0.324701       16.4523       1.81297             0        13.706     -0.180861             0       31.1142      -9.15657             0       14.9148             0             0      0.132838   1.52463e-16      0.422445        101910        103180        151795    2.7934e-16
     0.016016       287.559       288.136      0.309554       18.2199       2.46614             0       14.1737     -0.216711             0       33.8867      -9.82088             0       16.7515             0             0      0.137405   1.47338e-16      0.402588        101908        103177        151032    2.6995e-16
    0.0165165       287.757       288.159        0.2906       20.8916        3.1368             0       14.8681     -0.225668             0       36.5959       -9.8934             0       18.7067             0             0      0.141943   1.40886e-16      0.382857        101906        103174        150440    2.5813e-16
     0.017017       287.945       288.181      0.271609       23.5528       3.79737             0       15.5731      -0.23253             0       39.3309      -9.91711             0       20.6627             0             0      0.146805   1.34305e-16      0.361718        101904        103170        149863   2.46071e-16
    0.0175175       287.871       288.186      0.251542       25.9176        4.1712             0       16.5739     -0.179864             0       42.8034      -8.55406             0       22.6427             0             0      0.160864   1.24019e-16       0.30059        101901        103167        149749   2.27226e-16
     0.018018       287.795        288.19       0.23195       28.2364       4.53419             0       17.5714     -0.125514             0       46.2673       -7.1538             0       24.6247             0             0      0.174972   1.14057e-16      0.239252        101897        103163        149660   2.08973e-16
    0.0185185       287.656       288.173      0.225112       29.3228       4.60693             0       18.4779    -0.0260681             0       49.5035      -4.75728             0       26.6612             0             0      0.190371   1.12741e-16      0.172302        101888        103158        150268   2.06562e-16
     0.019019        287.52       288.155      0.218442       30.3701       4.67027             0       19.3686     0.0721419             0       52.6774        -2.369             0       28.7024             0             0       0.20544    1.1301e-16      0.106784        101878        103154        150904   2.07056e-16
    0.0195195       287.485       288.135       0.21605        30.429       4.49576             0       19.8599      0.139058             0       54.2738      -0.18921             0        30.865             0             0      0.212172   1.53423e-16     0.0775114        101865        103149        152249     2.811e-16
      0.02002       287.451       288.117      0.213424       30.4612       4.31745             0       20.3398      0.204808             0       55.7766       1.96882             0       33.0413             0             0      0.218705   1.95222e-16     0.0491106        101851        103145        153619   3.57683e-16
    0.0205205        287.47       288.112      0.205208       29.8519       4.04783             0       20.5458      0.242572             0       55.0314       3.60446             0       35.5441             0             0      0.220426   2.70273e-16     0.0416275        101835        103140        155601    4.9519e-16
     0.021021        287.49       288.108      0.196798       29.2348       3.77618             0        20.742      0.279499             0       54.1985       5.22114             0       38.0565             0             0      0.222045   3.44899e-16     0.0345891        101819        103135        157599   6.31919e-16
    0.0215215       287.518       288.112      0.183981       28.4398       3.45814             0       20.7131      0.297337             0       51.3648       6.40528             0       40.7859             0             0       0.22133   4.09849e-16     0.0376953        101802        103130        159965    7.5092e-16
     0.022022       287.546       288.118      0.171173       27.6612       3.14691             0       20.6723      0.313878             0       48.4853       7.57522             0        43.519             0             0      0.220616   4.73474e-16     0.0407999        101785        103125        162339   8.67492e-16
    0.0225225       287.564       288.131      0.158561       27.2396       2.98364             0       20.3754      0.302244             0        44.612       8.43677             0       46.3338             0             0      0.219909   5.08296e-16     0.0438734        101766        103119        164890   9.31293e-16
     0.023023       287.582       288.145      0.146134       26.8227       2.82343             0       20.0654      0.288698             0       40.7629       9.28193             0       49.1534             0             0      0.219227   5.41872e-16     0.0468392        101748        103114        167449    9.9281e-16
    0.0235235       287.594       288.167      0.137555       26.5066       2.72689             0       19.4812      0.235473             0       37.4169       9.78731             0       52.0723             0             0      0.219058   5.49585e-16     0.0475737        101726        103109        170167   1.00694e-15
     0.024024       287.605       288.189      0.129171       26.1842       2.63178             0       18.8931      0.180355             0       34.1627       10.2874             0       54.9964             0             0       0.21892   5.56427e-16     0.0481744        101705        103104        172894   1.01948e-15
    0.0245245       287.605       288.215      0.124672       25.7396       2.56511             0       18.2271     0.0876787             0       32.7304       10.6834             0       58.0232             0             0      0.219392   5.45986e-16     0.0461236        101681        103099        175825   1.00035e-15
     0.025025       287.605       288.241      0.120293       25.2846       2.50143             0       17.5676   -0.00551582             0       31.3503       11.0908             0       61.0531             0             0      0.219874   5.35395e-16      0.044028        101657        103094        178767   9.80943e-16
    0.0255255       287.601       288.262      0.118214       24.6309       2.49464             0       17.0328     -0.108553             0       30.9632       11.7159             0       64.1429             0             0      0.220551   5.21937e-16     0.0410816        101632        103089        181930   9.56286e-16
     0.026026       287.597       288.283      0.116126       23.9579       2.48859             0       16.5005     -0.211978             0       30.5592       12.3405             0       67.2269             0             0      0.221214     5.089e-16     0.0382002        101607        103083        185104     9.324e-16
    0.0265265         287.6       288.296      0.113862       22.9336       2.49613             0       16.0143       -0.3225             0       29.8462       12.9557             0       70.2051             0             0      0.221604   5.03534e-16     0.0365035        101581        103077        188480   9.22568e-16
     0.027027       287.604       288.308      0.111546       21.8841       2.50279             0       15.5228     -0.433898             0       29.1136       13.5562             0       73.1706             0             0      0.221983   4.98435e-16     0.0348566        101555        103071        191863   9.13226e-16
    0.0275275       287.612       288.317      0.108321       20.3939        2.4941             0       14.9374      -0.56067             0       28.0349       13.9001             0       75.9122             0             0       0.22216   4.98011e-16     0.0340849        101531        103064        195364   9.12449e-16
     0.028028       287.619       288.326      0.105131       18.8775        2.4841             0       14.3462     -0.688369             0        26.953       14.2309             0       78.6297             0             0      0.222333   4.97662e-16     0.0333345        101507        103058        198861    9.1181e-16
    0.0285285       287.626       288.333      0.102504       16.9185       2.45207             0       13.6577     -0.831685             0       25.8149       14.3427             0       80.9427             0             0      0.222423   4.98575e-16     0.0329448        101488        103051        202280   9.13482e-16
     0.029029       287.633       288.339     0.0999869       14.9372       2.41704             0       12.9635     -0.975683             0       24.6975       14.4464             0       83.2193             0             0      0.222509   4.99484e-16     0.0325703        101470        103044        205671   9.15148e-16
    0.0295295        287.64        288.34     0.0992549       12.5942       2.33335             0       12.1786      -1.13074             0       23.9146       14.4199             0       84.9051             0             0      0.222538   5.00341e-16     0.0324414        101460        103037        208630   9.16718e-16
      0.03003       287.647       288.342     0.0985662       10.2431       2.24584             0       11.3892       -1.2866             0       23.1805       14.3946             0       86.5445             0             0      0.222566   5.01158e-16     0.0323224        101451        103030        211541   9.18215e-16
    0.0305305       287.653        288.34     0.0985554       7.76425       2.09842             0       10.5305      -1.45502             0       23.2087       14.3891             0       87.4564             0             0      0.222558   5.01353e-16     0.0323586        101453        103024        213691   9.18572e-16
     0.031031       287.658       288.339     0.0985005        5.2951       1.94751             0       9.66856      -1.62346             0       23.2988       14.3944             0        88.318             0             0      0.222546   5.01502e-16     0.0324088        101455        103017        215785   9.18845e-16
    0.0315315       287.662       288.338      0.097778       2.97209        1.7437             0       8.75626      -1.79224             0        24.325       14.5618             0       88.4173             0             0      0.222486    5.0096e-16     0.0326709        101469        103012        217017   9.17853e-16
     0.032032       287.665       288.337      0.097057      0.671931       1.53798             0       7.84218       -1.9607             0       25.3941       14.7383             0       88.4726             0             0      0.222424   5.00354e-16       0.03294        101483        103007        218203   9.16743e-16
    0.0325325       287.671       288.335      0.096357      -1.29396       1.30426             0       6.90225      -2.12445             0       27.0907       15.0481             0       87.8833             0             0      0.222339   4.98808e-16     0.0333105        101506        103003        218708   9.13909e-16
     0.033033       287.677       288.333     0.0957065      -3.22953       1.07094             0       5.96225      -2.28756             0       28.7793       15.3529             0       87.2599             0             0      0.222256   4.97204e-16     0.0336706        101529        102999        219194    9.1097e-16
    0.0335335       287.685       288.331     0.0957579       -4.7361      0.843232             0        5.0213      -2.44161             0        30.354       15.5865             0        86.153             0             0      0.222207   4.94786e-16     0.0338838        101557        102996        219411   9.06541e-16
     0.034034       287.692       288.329     0.0958466      -6.21341      0.615667             0       4.08076      -2.59494             0       31.8669       15.7935             0        85.017             0             0      0.222162   4.92289e-16     0.0340765        101586        102993        219632   9.01966e-16
    0.0345345       287.699       288.329     0.0964469      -7.28961       0.39006             0       3.14574      -2.73841             0        32.532       15.6358             0       83.4825             0             0      0.222183   4.88705e-16      0.033988        101615        102992        219909   8.95399e-16
     0.035035       287.705        288.33     0.0970631      -8.34374      0.164173             0       2.21068      -2.88139             0       33.1137       15.4351             0       81.9186             0             0      0.222209   4.84788e-16     0.0338749        101644        102990        220193   8.88222e-16
    0.0355355       287.709       288.331     0.0978913      -9.10475    -0.0654343             0       1.27513      -3.01785             0       32.5882       14.6616             0       79.9646             0             0       0.22231   4.76442e-16      0.033434        101673        102989        220566   8.72931e-16
     0.036036       287.712       288.333     0.0987481       -9.8502     -0.295728             0      0.339075      -3.15401             0       32.0175       13.8471             0       77.9783             0             0      0.222412   4.67919e-16     0.0329913        101701        102989        220927   8.57315e-16
    0.0365365        287.71       288.336     0.0999728      -10.3952     -0.534865             0     -0.603541      -3.28625             0       30.8639       12.5022             0       75.5745             0             0      0.222519   4.57106e-16     0.0325258        101727        102990        221139   8.37504e-16
     0.037037       287.706       288.338      0.101254      -10.9308     -0.774061             0      -1.54637      -3.41742             0       29.7353       11.1447             0       73.1392             0             0       0.22262   4.46142e-16     0.0320853        101752        102991        221316   8.17415e-16
    0.0375375        287.69        288.34      0.103246      -11.3493      -1.01399             0      -2.49186      -3.53512             0       28.9201       9.63005             0       70.3107             0             0       0.22265   4.33282e-16     0.0319578        101775        102994        221046   7.93853e-16
     0.038038       287.674       288.342      0.105304      -11.7705      -1.25415             0      -3.43586      -3.65054             0       28.1838       8.14529             0       67.4557             0             0      0.222665   4.20356e-16     0.0318916        101798        102998        220727   7.70171e-16
    0.0385385       287.648       288.343      0.108179       -12.224      -1.49714             0      -4.36179       -3.7382             0       28.4078       7.02461             0       64.2786             0             0      0.222509   4.06635e-16     0.0325706        101818        103002        219808   7.45031e-16
     0.039039       287.622       288.344      0.111117      -12.6872      -1.73942             0      -5.28285      -3.82252             0       28.7321       5.96544             0       61.0854             0             0      0.222314   3.93635e-16     0.0334171        101838        103008        218842   7.21212e-16
    0.0395395        287.59       288.342      0.114796      -13.2634      -1.97335             0      -6.14643      -3.86735             0       30.2405       5.63341             0       57.7025             0             0      0.221664   3.89164e-16     0.0362418        101857        103014        217315   7.13021e-16
      0.04004        287.56       288.341      0.118425      -13.8322       -2.2029             0      -7.00096      -3.90824             0       31.8436       5.36798             0       54.3121             0             0       0.22092    3.8703e-16     0.0394778        101875        103021        215755   7.09112e-16
    0.0405405       287.546       288.338      0.121483      -14.3156      -2.38207             0      -7.75136      -3.90397             0       34.5352       5.86847             0        50.836             0             0      0.219088    4.1177e-16     0.0474435        101893        103030        213806    7.5444e-16
     0.041041       287.539       288.336      0.124374      -14.7739      -2.55311             0      -8.48898      -3.89541             0       37.2852       6.41561             0       47.3573             0             0      0.217074   4.40993e-16     0.0562021        101910        103038        211845   8.07982e-16
    0.0415415       287.603       288.335      0.125416      -14.9503      -2.63316             0      -9.08337      -3.83891             0       40.6882       7.48508             0       43.8487             0             0      0.213017   5.20403e-16     0.0738377        101926        103047        209759   9.53475e-16
     0.042042       287.671       288.334      0.126478      -15.1063       -2.7064             0      -9.66303      -3.77801             0       44.0962       8.56989             0       40.3444             0             0      0.208905   6.01316e-16     0.0917189        101942        103057        207686   1.10172e-15
    0.0425425       287.782       288.333       0.12775      -15.0389       -2.7052             0       -10.082      -3.66904             0       47.5602       9.82204             0       36.8866             0             0      0.204176   6.98624e-16      0.112279        101957        103066        205759   1.28001e-15
     0.043043       287.888       288.332      0.129085      -14.9572      -2.70253             0      -10.4863      -3.55523             0       51.0142       11.0605             0       33.4441             0             0      0.199615   7.93336e-16       0.13211        101971        103075        203862   1.45354e-15
    0.0435435       287.948       288.329      0.131079       -14.724      -2.68408             0      -10.7361      -3.39003             0       54.3634       12.1532             0       30.1638             0             0      0.196837   8.60462e-16      0.144186        101984        103083        202284   1.57653e-15
     0.044044       288.001       288.326       0.13294       -14.484       -2.6717             0      -10.9718      -3.22056             0       57.7523       13.2236             0       26.9069             0             0      0.194272   9.25635e-16      0.155338        101998        103092        200743   1.69594e-15
    0.0445445       287.988       288.321      0.133412      -14.1732      -2.72208             0       -11.063      -3.00684             0       61.5536       14.0628             0        23.893             0             0      0.193912   9.70561e-16      0.156906        102010        103100        199589   1.77825e-15
     0.045045       287.975       288.315      0.133885      -13.8302      -2.76076             0      -11.1416      -2.78994             0       65.4881       14.8729             0       20.9007             0             0      0.193737   1.01404e-15      0.157665        102022        103108        198470   1.85791e-15
    0.0455455       287.949       288.307      0.134374      -13.1613      -2.68116             0      -11.0922      -2.54101             0       70.7696       15.3898             0       18.1271             0             0      0.195444   1.04287e-15      0.150244        102033        103115        197703   1.91074e-15