#           y             T         TMean   TPrime2Mean           U_x           U_y           U_z       UMean_x       UMean_y       UMean_z UPrime2Mea... UPrime2Mea... UPrime2Mea... UPrime2Mea... UPrime2Mea... UPrime2Mea...            O2           H2O          C3H8             p         pMean   pPrime2Mean           CO2
  1.11022e-19        287.71        288.25      0.170179       23.1534   4.80102e-17             0       15.1649   8.93371e-18             0       23.0907   5.97018e-18             0   2.36157e-17             0             0      0.228643   4.20541e-17    0.00589859        102140        103293        191685   7.70509e-17
  0.000500501       287.726       288.248       0.17701       23.1623      0.216435             0       15.1756     0.0402741             0       23.1275     0.0269142             0      0.106462             0             0      0.228041   5.11711e-17    0.00851687        102140        103293        191654    9.3755e-17
     0.001001       287.742       288.247       0.18386       23.1711      0.432888             0       15.1862     0.0805478             0       23.1645     0.0538042             0      0.213175             0             0      0.227436    6.0322e-17     0.0111483        102141        103292        191622   1.10521e-16
    0.0015015       287.796       288.245      0.200039       23.1973       0.65842             0       15.2097      0.120583             0       23.2813     0.0686168             0      0.445071             0             0      0.225321   8.63266e-17     0.0203448        102141        103292        191522   1.58167e-16
     0.002002        287.85       288.244      0.216216       23.2236      0.884016             0       15.2331      0.160617             0       23.3979     0.0834077             0      0.677424             0             0      0.223196   1.12391e-16     0.0295807        102141        103292        191422   2.05921e-16
    0.0025025       287.958       288.248      0.231792       23.2599       1.12563             0       15.2394      0.200196             0       23.4498     0.0928126             0       1.02363             0             0      0.218817   1.53208e-16     0.0486203        102141        103291        191269   2.80706e-16
     0.003003       288.067       288.251      0.247332       23.2961       1.36724             0       15.2455      0.239774             0          23.5      0.102289             0       1.37033             0             0       0.21443    1.9406e-16     0.0676977        102141        103291        191116   3.55554e-16
    0.0035035       288.196       288.265      0.257093       23.2997       1.61025             0       15.2126      0.279225             0       23.2588       0.12369             0       1.79853             0             0      0.208604   2.40511e-16     0.0930272        102141        103291        190908   4.40662e-16
     0.004004       288.325       288.278      0.266828       23.3025       1.85302             0       15.1795      0.318689             0       23.0158      0.145426             0       2.22718             0             0      0.202782   2.86943e-16       0.11834        102141        103290        190700   5.25733e-16
    0.0045045        288.41       288.297      0.273438       23.2015       2.06751             0       15.1155      0.359837             0       22.5594      0.208654             0        2.7129             0             0      0.197448   3.30918e-16      0.141531        102140        103289        190439   6.06303e-16
   0.00500501       288.494       288.317      0.280035       23.0996       2.28112             0       15.0514      0.400983             0       22.1036      0.272093             0       3.19909             0             0      0.192129   3.74876e-16      0.164656        102140        103289        190178   6.86843e-16
   0.00550551       288.499       288.334      0.285364        22.908       2.40666             0       14.9728      0.441865             0       21.7119      0.356287             0       3.73241             0             0      0.188298   4.17175e-16      0.181311        102139        103288        189882   7.64342e-16
   0.00600601       288.504       288.351      0.290665       22.7158       2.53045             0       14.8942      0.482699             0       21.3215      0.439519             0       4.26642             0             0      0.184493   4.59441e-16      0.197858        102139        103288        189587   8.41782e-16
   0.00650651       288.429       288.366      0.293687       22.4728       2.50954             0       14.8118      0.519637             0       21.0353      0.443497             0       4.85679             0             0      0.182726   4.99045e-16      0.205538        102139        103287        189247   9.14343e-16
   0.00700701       288.354        288.38      0.296667       22.2284       2.48646             0       14.7295      0.556512             0       20.7495      0.445863             0       5.44841             0             0      0.180983   5.38607e-16      0.213119        102138        103287        188907   9.86829e-16
   0.00750751       288.265       288.391      0.296747        21.884       2.31143             0       14.6539      0.588941             0       20.4994      0.334659             0       6.12717             0             0      0.180847   5.75285e-16      0.213708        102138        103286        188526   1.05403e-15
   0.00800801       288.177       288.401      0.296777       21.5396       2.13635             0       14.5785      0.621392             0       20.2496      0.223361             0       6.80809             0             0      0.180724     6.121e-16      0.214244        102138        103285        188146   1.12148e-15
   0.00850851       288.118       288.404      0.293803        21.193       1.95765             0        14.516      0.655212             0       20.0166      0.106192             0        7.6217             0             0      0.181341   6.57338e-16       0.21156        102139        103285        187756   1.20437e-15
   0.00900901        288.06       288.407      0.290766       20.8505       1.78362             0       14.4534      0.689182             0        19.782   -0.00780169             0       8.43724             0             0      0.181962    7.0253e-16      0.208861        102140        103284        187367   1.28717e-15
   0.00950951       288.019       288.407       0.28431       20.7338       1.86414             0       14.3844       0.73131             0       19.4601     0.0513793             0       9.35734             0             0      0.182786   7.45195e-16      0.205277        102141        103283        186991   1.36534e-15
      0.01001       287.979       288.407      0.277825       20.6221       1.95114             0       14.3146      0.773675             0       19.1343      0.116141             0       10.2778             0             0      0.183609   7.87506e-16      0.201701        102142        103282        186615   1.44286e-15
    0.0105105        287.95        288.41      0.269862       20.7545       2.35525             0       14.2054      0.827672             0       18.6242      0.454354             0        11.216             0             0      0.184344   8.12416e-16      0.198506        102143        103281        186258    1.4885e-15
     0.011011       287.922       288.414      0.261928        20.888       2.76266             0       14.0947        0.8818             0       18.1104      0.796886             0        12.154             0             0      0.185076   8.37105e-16       0.19532        102144        103280        185901   1.53373e-15
    0.0115115       287.902       288.422      0.255255       21.0702       3.31716             0       13.9216      0.941789             0       17.4312       1.33144             0       13.0797             0             0      0.185723   8.51917e-16      0.192507        102144        103279        185577   1.56087e-15
     0.012012       287.883        288.43      0.248599       21.2492       3.87137             0       13.7466       1.00175             0       16.7487       1.86778             0       14.0041             0             0      0.186367   8.66577e-16       0.18971        102145        103278        185253   1.58773e-15
    0.0125125       287.871        288.44      0.242596       21.2917       4.41401             0       13.4931       1.06038             0       15.9378       2.47662             0       14.8743             0             0      0.186866   8.74999e-16      0.187538        102145        103276        184947   1.60316e-15
     0.013013       287.858        288.45      0.236621       21.3291       4.95518             0       13.2375       1.11884             0       15.1245        3.0847             0       15.7406             0             0      0.187362   8.83317e-16      0.185382        102145        103275        184640    1.6184e-15
    0.0135135       287.853       288.461       0.23171        21.172       5.44124             0       12.9007       1.17035             0       14.2204       3.66428             0       16.4598             0             0      0.187713     8.877e-16      0.183856        102145        103274        184345   1.62643e-15
     0.014014       287.848       288.472       0.22686         21.01       5.92611             0       12.5623       1.22137             0       13.3168       4.23823             0       17.1742             0             0      0.188066   8.92075e-16      0.182322        102145        103273        184049   1.63445e-15
    0.0145145       287.844       288.481      0.224136       20.6816        6.3697             0       12.1695       1.25538             0       12.4298       4.61648             0       17.7241             0             0      0.188478   8.96157e-16      0.180529        102144        103272        183770   1.64193e-15
     0.015015        287.84        288.49      0.221454       20.3494       6.81265             0       11.7762       1.28864             0       11.5489       4.98594             0       18.2702             0             0      0.188891   9.00285e-16      0.178735        102143        103271        183490   1.64949e-15
    0.0155155       287.834       288.495      0.220158       19.8978       7.23466             0       11.3684       1.29764             0       10.8639       5.07109             0       18.6947             0             0      0.189305   9.05912e-16      0.176935        102142        103270        183214    1.6598e-15
     0.016016       287.829         288.5      0.218855       19.4436       7.65638             0       10.9612       1.30597             0       10.1911       5.14997             0       19.1164             0             0      0.189709   9.11478e-16      0.175178        102140        103269        182937      1.67e-15
    0.0165165       287.828       288.503      0.217356       18.9096        8.0691             0       10.5751       1.29401             0       9.89121        5.0391             0       19.4525             0             0      0.189813   9.15207e-16      0.174726        102138        103268        182661   1.67683e-15
     0.017017       287.828       288.505       0.21578       18.3736       8.48164             0       10.1906       1.28175             0        9.6062       4.92679             0       19.7869             0             0      0.189911   9.18858e-16      0.174298        102135        103268        182384   1.68352e-15
    0.0175175        287.83       288.503      0.211982       17.7791       8.88926             0       9.85208       1.26122             0       9.74411        4.7737             0       20.0731             0             0      0.189859   9.20301e-16      0.174526        102133        103267        182093   1.68616e-15
     0.018018       287.832         288.5      0.208152       17.1829       9.29658             0       9.51547       1.24072             0       9.89458       4.62198             0       20.3598             0             0      0.189808   9.21715e-16      0.174747        102131        103267        181803   1.68875e-15
    0.0185185       287.834       288.493      0.203437       16.5419       9.69591             0       9.22942       1.22079             0       10.3814       4.50696             0        20.661             0             0      0.189803   9.22369e-16      0.174769        102128        103267        181518   1.68995e-15
     0.019019       287.835       288.486      0.198825          15.9       10.0944             0       8.94502       1.20091             0       10.8759       4.39329             0       20.9658             0             0      0.189798   9.23004e-16       0.17479        102126        103266        181234   1.69112e-15
    0.0195195       287.837       288.481       0.19681       15.2318       10.4711             0       8.70232       1.18217             0       11.5656       4.31382             0       21.3648             0             0      0.189795   9.23195e-16      0.174804        102123        103266        180977   1.69147e-15
      0.02002       287.838       288.476      0.194824       14.5631       10.8464             0       8.46106       1.16335             0       12.2601       4.23394             0       21.7692             0             0      0.189791   9.23374e-16      0.174823        102120        103266        180721   1.69179e-15
    0.0205205       287.838       288.478      0.193521       13.8834       11.1859             0       8.25458       1.14253             0       13.0686       4.14389             0       22.3023             0             0      0.189763    9.2327e-16      0.174943        102118        103266        180483    1.6916e-15
     0.021021       287.839       288.481       0.19216       13.2033       11.5239             0       8.04935        1.1216             0       13.8802       4.05132             0         22.84             0             0      0.189735   9.23142e-16      0.175065        102115        103265        180245   1.69137e-15
    0.0215215       287.837       288.492      0.189445       12.5154       11.8273             0       7.87306       1.09779             0       14.7608       3.90118             0       23.4821             0             0      0.189691   9.22499e-16      0.175256        102112        103265        180031   1.69019e-15
     0.022022       287.834       288.503      0.186781       11.8268       12.1297             0       7.69757       1.07382             0       15.6411       3.74769             0       24.1265             0             0      0.189646   9.21794e-16      0.175452        102110        103265        179818    1.6889e-15
    0.0225225       287.829       288.517      0.185227       11.1232       12.4099             0       7.53958       1.04633             0       16.5145       3.52137             0       24.8239             0             0      0.189576   9.19737e-16      0.175758        102108        103265        179621   1.68513e-15
     0.023023       287.824       288.531      0.183748       10.4186       12.6896             0       7.38205        1.0185             0       17.3824       3.29192             0       25.5218             0             0      0.189501   9.17531e-16      0.176082        102106        103264        179426   1.68109e-15
    0.0235235       287.818       288.543      0.183833       9.69368       12.9568             0       7.23438       0.98373             0       18.1376       2.99756             0       26.2292             0             0       0.18934   9.12221e-16      0.176783        102104        103264        179261   1.67136e-15
     0.024024       287.812       288.554      0.184011       8.96808       13.2231             0       7.08749      0.948415             0        18.881       2.70103             0       26.9363             0             0      0.189168   9.06618e-16      0.177529        102102        103263        179099   1.66109e-15
    0.0245245       287.809       288.565      0.186043       8.22921        13.473             0         6.956      0.902374             0        19.391       2.36141             0       27.6371             0             0      0.188795    8.9521e-16       0.17915        102101        103263        178983   1.64019e-15
     0.025025       287.806       288.576       0.18809       7.49072       13.7208             0       6.82579      0.855802             0       19.8859       2.02038             0       28.3377             0             0      0.188411   8.83527e-16      0.180821        102100        103263        178870   1.61879e-15
    0.0255255       287.811       288.587      0.190439       6.75955       13.9288             0       6.71976      0.799138             0       20.0958       1.65274             0       29.0345             0             0      0.187812   8.66619e-16      0.183426        102099        103263        178804   1.58781e-15
     0.026026       287.816       288.598      0.192625       6.03029        14.133             0       6.61514      0.742136             0       20.2933       1.28341             0       29.7312             0             0      0.187206   8.49605e-16      0.186059        102098        103262        178740   1.55663e-15
    0.0265265       287.827       288.608      0.191856       5.33593       14.2666             0       6.53609       0.67898             0       20.2651      0.883268             0       30.4261             0             0       0.18648   8.30654e-16      0.189219        102097        103262        178720   1.52191e-15
     0.027027       287.839       288.618      0.190907       4.64528       14.3947             0       6.45828       0.61568             0       20.2297      0.480124             0       31.1212             0             0      0.185756   8.11857e-16      0.192366        102097        103262        178701   1.48747e-15
    0.0275275       287.855       288.626      0.186801       4.01952       14.4243             0       6.40205      0.549867             0       20.0701      0.024473             0       31.8197             0             0      0.185088   7.95782e-16       0.19527        102097        103261        178727   1.45802e-15
     0.028028        287.87       288.634       0.18261       3.39875       14.4473             0        6.3469      0.484025             0        19.906       -0.4346             0       32.5175             0             0      0.184433   7.80095e-16      0.198119        102097        103261        178756   1.42928e-15
    0.0285285       287.886       288.638      0.176973       2.86198       14.3591             0       6.30986      0.417688             0       19.6659     -0.951366             0       33.2025             0             0      0.183995   7.70945e-16      0.200022        102097        103260        178838   1.41251e-15
     0.029029       287.902       288.641        0.1714       2.33062       14.2646             0       6.27384      0.351338             0       19.4188      -1.46959             0       33.8832             0             0      0.183566   7.62052e-16      0.201887        102098        103260        178924   1.39622e-15
    0.0295295       287.919       288.642      0.166853       1.88717       14.0684             0       6.25446      0.284781             0       19.0579      -2.01159             0        34.494             0             0       0.18328   7.57334e-16      0.203129        102099        103260        179078   1.38758e-15
      0.03003       287.936       288.642      0.162416       1.44882        13.867             0       6.23571      0.218403             0       18.6869      -2.55232             0        35.095             0             0      0.183002   7.52768e-16       0.20434        102099        103260        179236   1.37921e-15
    0.0305305       287.951       288.641      0.159714       1.09043       13.5841             0       6.22693      0.154845             0       18.1581      -3.07309             0        35.543             0             0      0.182834   7.50561e-16      0.205068        102100        103260        179460   1.37517e-15
     0.031031       287.966       288.639      0.157054      0.737116        13.297             0        6.2181     0.0919022             0       17.6182      -3.59023             0        35.976             0             0      0.182683   7.48611e-16      0.205727        102101        103260        179688    1.3716e-15
    0.0315315       287.974       288.637      0.155039      0.460499       12.9456             0        6.2085     0.0382671             0       16.9093      -4.05234             0       36.1832             0             0      0.182771   7.50537e-16      0.205345        102102        103260        179974   1.37512e-15
     0.032032       287.981       288.634      0.153003      0.189671         12.59             0       6.19882    -0.0144305             0       16.1945      -4.51098             0       36.3734             0             0      0.182876   7.52743e-16      0.204888        102103        103260        180264   1.37917e-15
    0.0325325       287.984       288.631      0.150678    0.00350844       12.1718             0       6.18798    -0.0534171             0       15.3944      -4.91884             0       36.3173             0             0      0.183236   7.59054e-16      0.203324        102105        103261        180615   1.39073e-15
     0.033033       287.987       288.628      0.148309     -0.179274       11.7521             0       6.17787    -0.0914868             0       14.6019      -5.32683             0       36.2462             0             0      0.183606   7.65499e-16      0.201715        102107        103261        180970   1.40254e-15
    0.0335335       287.993       288.626      0.145313     -0.314219       11.3114             0       6.17803     -0.116581             0       13.9176      -5.73671             0       35.9642             0             0      0.184122   7.73842e-16       0.19947        102108        103262        181370   1.41782e-15
     0.034034           288       288.624      0.142332     -0.448647       10.8727             0       6.17978     -0.140997             0       13.2536      -6.15012             0       35.6695             0             0      0.184655    7.8211e-16      0.197151        102110        103262        181773   1.43297e-15
    0.0345345       288.011       288.621      0.139552     -0.575971       10.4615             0       6.20347     -0.156124             0       12.8693      -6.61206             0       35.2006             0             0      0.185423   7.89342e-16      0.193814        102112        103263        182217   1.44622e-15
     0.035035       288.023       288.619      0.136838      -0.69615       10.0467             0        6.2292     -0.170776             0       12.5128      -7.07773             0       34.7191             0             0      0.186219   7.96615e-16       0.19035        102114        103264        182662   1.45955e-15
    0.0355355        288.04       288.616      0.134986     -0.721405       9.58413             0       6.28209     -0.179136             0       12.5266        -7.593             0       34.0703             0             0      0.187406    8.0444e-16      0.185189        102116        103265        183133   1.47388e-15
     0.036036       288.058       288.613      0.133223     -0.732321       9.11053             0        6.3367      -0.18692             0       12.5757      -8.11038             0       33.4075             0             0      0.188613   8.12801e-16      0.179943        102118        103266        183603    1.4892e-15
    0.0365365       288.086        288.61      0.132609     -0.558433       8.49446             0       6.41346     -0.187277             0       13.0793      -8.65496             0        32.565             0             0      0.190072   8.28071e-16      0.173598        102120        103267        184063   1.51718e-15
     0.037037       288.114       288.607      0.132144     -0.383376       7.87737             0       6.49118     -0.186915             0       13.6268      -9.20114             0       31.7087             0             0      0.191521   8.43905e-16      0.167301        102122        103268        184521   1.54619e-15
    0.0375375       288.141       288.603      0.133541     -0.193679       7.24767             0       6.58087     -0.177546             0        14.724      -9.76717             0       30.6815             0             0      0.192831   8.66788e-16      0.161605        102124        103269        184963   1.58812e-15
     0.038038       288.167       288.599      0.135181    -0.0189227       6.63149             0       6.67106     -0.167742             0       15.8653      -10.3342             0       29.6442             0             0      0.194096   8.89256e-16      0.156105        102126        103270        185402   1.62928e-15
    0.0385385       288.172       288.592      0.139782    -0.0258189       6.17969             0       6.76721     -0.152641             0       17.5427      -10.9133             0       28.4848             0             0      0.194815   9.06667e-16       0.15298        102128        103272        185815   1.66118e-15
     0.039039       288.174       288.585      0.144561    -0.0442191        5.7363             0        6.8635     -0.137454             0        19.252       -11.489             0       27.3188             0             0      0.195496   9.23275e-16      0.150019        102130        103273        186225   1.69161e-15
    0.0395395       288.149       288.574      0.151445     -0.198602       5.39225             0       6.96158     -0.121252             0       21.3383      -12.0254             0       26.0749             0             0      0.195731   9.30383e-16      0.148995        102131        103275        186599   1.70463e-15
      0.04004       288.121       288.564      0.158296     -0.366664       5.05469             0       7.05914     -0.105143             0       23.4349      -12.5511             0       24.8245             0             0      0.195959    9.3782e-16      0.148004        102133        103276        186974   1.71826e-15
    0.0405405        288.06       288.552      0.164774     -0.692041       4.79173             0       7.15073    -0.0900932             0       25.6505      -12.9553             0       23.5008             0             0      0.196099   9.49048e-16      0.147397        102134        103278        187344   1.73883e-15
     0.041041       287.998       288.541      0.171082      -1.03281       4.53845             0       7.24083    -0.0753953             0       27.8472      -13.3407             0       22.1683             0             0      0.196228   9.61218e-16      0.146835        102135        103280        187714   1.76113e-15
    0.0415415       287.931        288.53      0.175496      -1.54591       4.39359             0       7.31425     -0.064634             0       29.8314      -13.5161             0       20.7388             0             0      0.196242   9.83946e-16      0.146772        102136        103281        188082   1.80277e-15
     0.042042       287.867        288.52      0.179622      -2.04727       4.24375             0       7.38542    -0.0543083             0       31.7709       -13.666             0       19.3008             0             0      0.196195   1.00913e-15      0.146977        102137        103283        188452   1.84892e-15
    0.0425425       287.835       288.513      0.180611      -2.42053       4.03957             0       7.43215    -0.0487331             0       33.2227      -13.5373             0       17.7698             0             0      0.195477   1.06111e-15        0.1501        102138        103285        188827   1.94415e-15
     0.043043       287.806       288.506      0.181437      -2.76483       3.82267             0       7.47573    -0.0435252             0       34.6156      -13.3798             0       16.2336             0             0      0.194586   1.11944e-15      0.153972        102138        103286        189206   2.05103e-15
    0.0435435       287.821       288.502      0.180532      -2.80127       3.47045             0       7.48573    -0.0422223             0       35.3824      -12.9156             0       14.6411             0             0      0.191863   1.24535e-15      0.165815        102139        103288        189621   2.28172e-15
     0.044044       287.836       288.499      0.179764      -2.83234        3.1169             0       7.49079    -0.0416439             0       36.0973      -12.4208             0       13.0498             0             0      0.189102    1.3709e-15      0.177815        102139        103290        190037   2.51175e-15
    0.0445445       287.863       288.496      0.180412      -2.80795       2.74964             0       7.44471    -0.0485738             0       36.2748      -11.6081             0       11.4697             0             0      0.185964   1.49268e-15       0.19146        102139        103292        190468   2.73488e-15
     0.045045       287.887       288.493      0.180991      -2.80222       2.38937             0       7.39224    -0.0558287             0       36.4286      -10.7652             0       9.89768             0             0      0.183003   1.60597e-15      0.204333        102139        103293        190898   2.94243e-15
    0.0455455       287.887       288.487      0.180858      -2.98522       2.09975             0       7.27516    -0.0663708             0       36.3421      -9.61584             0       8.40691             0             0      0.181839   1.63331e-15      0.209394        102139        103295        191325   2.99253e-15