#           y             T         TMean   TPrime2Mean           U_x           U_y           U_z       UMean_x       UMean_y       UMean_z UPrime2Mea... UPrime2Mea... UPrime2Mea... UPrime2Mea... UPrime2Mea... UPrime2Mea...            O2           H2O          C3H8             p         pMean   pPrime2Mean           CO2
  1.11022e-19        288.29         288.6     0.0951327       24.8474  -3.73846e-17             0       12.1722   4.29201e-18             0       35.1846   1.93335e-17             0   5.42285e-18             0             0       0.18075    2.1718e-15      0.214132        102638        103239        252458   3.97915e-15
  0.000500501       288.302       288.609     0.0920294       24.6008     -0.168534             0       12.1653     0.0193489             0       34.9753     0.0871577             0     0.0244468             0             0      0.180408   2.20985e-15      0.215616        102638        103239        252457   4.04885e-15
     0.001001       288.314       288.617      0.088923       24.3532     -0.337086             0       12.1584     0.0386973             0       34.7646      0.174335             0     0.0489641             0             0      0.180067   2.24789e-15      0.217099        102638        103239        252456   4.11856e-15
    0.0015015       288.319        288.63      0.084236       23.5905     -0.514859             0       12.1326      0.057856             0       33.9389      0.271508             0       0.10867             0             0      0.179925    2.2891e-15      0.217716        102638        103239        252450   4.19406e-15
     0.002002       288.323       288.643      0.079558        22.827     -0.692691             0       12.1067     0.0770077             0       33.1114      0.368644             0       0.16854             0             0      0.179789   2.33002e-15      0.218307        102638        103239        252443   4.26903e-15
    0.0025025       288.266        288.65     0.0771449       21.8505     -0.885454             0       12.0679     0.0944384             0         31.86      0.456964             0      0.269411             0             0      0.181113   2.29928e-15       0.21255        102638        103238        252425   4.21271e-15
     0.003003       288.209       288.656     0.0747377       20.8755      -1.07834             0       12.0292      0.111856             0       30.6091      0.545139             0      0.370517             0             0      0.182443   2.26831e-15       0.20677        102637        103238        252407   4.15596e-15
    0.0035035       288.126       288.659     0.0733079       20.1285      -1.29101             0       11.9928      0.127115             0       29.4474      0.609259             0      0.510534             0             0      0.184707   2.19973e-15      0.196927        102637        103238        252381   4.03032e-15
     0.004004       288.042       288.662     0.0718869       19.3839      -1.50379             0       11.9564      0.142363             0       28.2869      0.673237             0      0.650815             0             0      0.186984   2.13078e-15      0.187024        102637        103238        252355   3.90398e-15
    0.0045045       287.953       288.663     0.0715531       18.9437      -1.73015             0        11.924      0.156217             0       27.2816      0.719652             0      0.823782             0             0      0.190998     2.015e-15      0.169574        102636        103237        252305   3.69185e-15
   0.00500501       287.863       288.664     0.0712325       18.5054      -1.95647             0       11.8916      0.170063             0       26.2774      0.765948             0      0.996991             0             0      0.195035   1.89851e-15      0.152023        102635        103237        252256   3.47842e-15
   0.00550551       287.781       288.663      0.072216       18.2626      -2.17785             0       11.8611      0.183196             0       25.3845      0.800461             0       1.19407             0             0      0.201376   1.71239e-15      0.124452        102635        103237        252183   3.13742e-15
   0.00600601       287.701       288.663     0.0731941       18.0215      -2.39925             0       11.8306      0.196321             0       24.4937      0.834755             0       1.39137             0             0       0.20771   1.52608e-15     0.0969127        102634        103237        252110   2.79606e-15
   0.00650651       287.739       288.662     0.0737264       17.9145      -2.62248             0       11.8045      0.208758             0       23.7712      0.851028             0       1.60598             0             0      0.213448   1.32426e-15     0.0719656        102633        103236        252010   2.42629e-15
   0.00700701        287.78       288.661     0.0742356       17.8091      -2.84602             0       11.7785      0.221186             0        23.052      0.866947             0       1.82083             0             0      0.219149     1.123e-15     0.0471769        102633        103236        251910   2.05754e-15
   0.00750751       287.929        288.66     0.0731229       17.8207      -3.09161             0       11.7606      0.232973             0       22.5662      0.857835             0       2.05222             0             0      0.222284   9.60843e-16     0.0335492        102632        103236        251784   1.76044e-15
   0.00800801       288.077        288.66     0.0719999       17.8327      -3.33755             0       11.7428      0.244752             0       22.0838       0.84832             0       2.28392             0             0      0.225386   7.99571e-16     0.0200606        102631        103235        251658   1.46496e-15
   0.00850851       288.188        288.66      0.070251       17.8743      -3.60441             0        11.732      0.256028             0       21.8097      0.814036             0       2.53477             0             0      0.226519   6.92632e-16      0.015133        102630        103235        251511   1.26903e-15
   0.00900901       288.297        288.66     0.0685102       17.9152      -3.87142             0       11.7211      0.267298             0       21.5372      0.779448             0       2.78602             0             0      0.227638   5.86505e-16     0.0102679        102629        103235        251364   1.07459e-15
   0.00950951       288.327       288.661     0.0672124       17.9116      -4.14689             0       11.7105      0.278192             0         21.36      0.728253             0        3.0589             0             0      0.227973   5.24706e-16    0.00881284        102628        103235        251205   9.61361e-16
      0.01001       288.357       288.662     0.0659281       17.9076      -4.42272             0       11.6998       0.28908             0       21.1825      0.676858             0        3.3323             0             0      0.228302   4.63538e-16    0.00738188        102626        103234        251046   8.49288e-16
    0.0105105       288.361       288.663     0.0653116       17.8789      -4.71632             0       11.6837       0.29966             0       20.9956      0.615582             0       3.63099             0             0       0.22836   4.33214e-16    0.00712993        102625        103234        250886   7.93728e-16
     0.011011       288.364       288.665     0.0647043       17.8502      -5.01062             0       11.6674      0.310235             0       20.8071      0.554156             0       3.93029             0             0      0.228407   4.03699e-16    0.00692624        102624        103234        250727   7.39652e-16
    0.0115115       288.359       288.666     0.0645058       17.8216      -5.33661             0       11.6423       0.32054             0       20.5423      0.486004             0       4.25682             0             0       0.22796    4.1016e-16    0.00886797        102622        103233        250572   7.51489e-16
     0.012012       288.355       288.667     0.0643056       17.7914      -5.66282             0       11.6168      0.330845             0       20.2743      0.417969             0       4.58389             0             0      0.227476   4.18881e-16     0.0109744        102621        103233        250419   7.67469e-16
    0.0125125       288.353       288.668      0.064032       17.6967      -5.99836             0        11.579      0.341121             0       19.8707      0.354654             0        4.9325             0             0      0.225451   5.19561e-16     0.0197797        102619        103232        250295   9.51933e-16
     0.013013       288.351        288.67     0.0637481       17.5962      -6.33198             0       11.5406      0.351416             0       19.4612      0.292355             0       5.28116             0             0      0.223365   6.23597e-16     0.0288476        102617        103232        250172   1.14255e-15
    0.0135135       288.376       288.672     0.0630823       17.2734      -6.59401             0       11.4839      0.362414             0       18.8277      0.268111             0       5.63163             0             0      0.219016   8.53351e-16     0.0477579        102615        103232        250076    1.5635e-15
     0.014014       288.402       288.675     0.0624195       16.9422       -6.8519             0       11.4266      0.373447             0       18.1859       0.24581             0       5.98135             0             0      0.214656   1.08333e-15     0.0667125        102613        103231        249981   1.98486e-15
    0.0145145       288.455       288.677      0.061859       16.3195      -6.96634             0       11.3449      0.385709             0       17.2537      0.290919             0       6.30471             0             0      0.209943   1.32114e-15     0.0872028        102612        103231        249911   2.42057e-15
     0.015015       288.508        288.68     0.0613076       15.6939       -7.0781             0       11.2624       0.39797             0       16.3142      0.337444             0       6.62693             0             0      0.205286   1.55535e-15       0.10745        102610        103230        249842   2.84969e-15
    0.0155155       288.548       288.682     0.0610486       14.9683      -7.10281             0       11.1549       0.41024             0       15.1372      0.429753             0       6.91251             0             0      0.202435   1.67337e-15       0.11985        102608        103230        249796   3.06593e-15
     0.016016       288.588       288.684     0.0607885       14.2479       -7.1291             0       11.0467      0.422431             0       13.9574      0.521551             0       7.19711             0             0       0.19963   1.78862e-15      0.132041        102607        103229        249751   3.27709e-15
    0.0165165       288.603       288.685        0.0605       13.6826      -7.20331             0       10.9186      0.432217             0       12.6954      0.597874             0       7.45232             0             0      0.198269   1.81983e-15      0.137959        102606        103229        249694   3.33427e-15
     0.017017       288.618       288.687     0.0602161       13.1222      -7.27988             0       10.7901      0.441875             0       11.4359      0.672334             0       7.70622             0             0      0.196929   1.85017e-15      0.143789        102604        103229        249636   3.38986e-15
    0.0175175       288.628       288.688     0.0600649       12.6996      -7.42377             0       10.6478      0.447862             0       10.2497      0.693874             0       7.92296             0             0      0.196162   1.85583e-15      0.147121        102604        103228        249551   3.40022e-15
     0.018018       288.638       288.689     0.0599223        12.275      -7.56697             0       10.5052       0.45372             0        9.0707      0.713737             0       8.13731             0             0      0.195401   1.86122e-15      0.150432        102603        103228        249464   3.41011e-15
    0.0185185       288.653       288.689     0.0600083       11.7994      -7.69148             0       10.3534      0.456116             0       8.08125      0.688659             0       8.28769             0             0      0.194766    1.8598e-15       0.15319        102602        103228        249339   3.40751e-15
     0.019019       288.668        288.69     0.0600945       11.3212      -7.81404             0       10.2014      0.458382             0       7.10266      0.662565             0       8.43481             0             0      0.194141   1.85831e-15      0.155908        102602        103228        249214   3.40476e-15
    0.0195195       288.684       288.691     0.0601828       10.7744      -7.88732             0        10.046      0.457355             0       6.39872       0.61076             0       8.49975             0             0      0.193744   1.85485e-15      0.157633        102601        103227        249051   3.39844e-15
      0.02002       288.701       288.692     0.0602462       10.2295      -7.95942             0       9.89075      0.456187             0        5.7074      0.558345             0       8.56133             0             0      0.193362   1.85134e-15      0.159297        102601        103227        248887     3.392e-15
    0.0205205       288.719       288.694     0.0597124       9.72902      -8.00295             0       9.73841      0.451625             0       5.31901      0.491307             0       8.54244             0             0      0.193314   1.84637e-15      0.159502        102601        103227        248713   3.38289e-15
     0.021021       288.737       288.696     0.0591403       9.23199      -8.04514             0       9.58629      0.446942             0       4.94231      0.424141             0       8.52036             0             0      0.193278   1.84122e-15      0.159662        102601        103227        248539   3.37346e-15
    0.0215215       288.772       288.699      0.057697       8.81398      -8.05652             0       9.43913      0.439484             0       4.83216      0.354042             0       8.42533             0             0      0.193476   1.83219e-15        0.1588        102601        103227        248375   3.35692e-15
     0.022022       288.807       288.703      0.056238       8.39753      -8.06553             0       9.29213      0.431957             0        4.7315      0.284527             0       8.32709             0             0      0.193683   1.82316e-15      0.157899        102601        103228        248211   3.34037e-15
    0.0225225       288.846       288.707     0.0544377       8.01521      -8.02283             0       9.14846      0.422946             0       4.83687      0.227709             0       8.15912             0             0      0.194081   1.81408e-15      0.156171        102602        103228        248051   3.32373e-15
     0.023023       288.885       288.711     0.0526541       7.63325      -7.97725             0       9.00494      0.413896             0        4.9502       0.17184             0       7.98797             0             0      0.194481   1.80507e-15      0.154432        102602        103228        247890   3.30722e-15
    0.0235235       288.908       288.715     0.0512184       7.25877      -7.87192             0       8.86464      0.404064             0       5.22877      0.135649             0       7.75079             0             0      0.194935   1.79765e-15      0.152458        102603        103228        247719   3.29364e-15
     0.024024       288.931       288.718     0.0498145       6.88554      -7.76405             0       8.72467      0.394199             0        5.5147      0.100346             0       7.51056             0             0      0.195389   1.79018e-15      0.150483        102603        103229        247548   3.27995e-15
    0.0245245       288.945       288.722     0.0490385       6.53712      -7.60589             0       8.59118      0.383672             0       5.94637     0.0826586             0       7.21001             0             0      0.195851   1.78154e-15      0.148475        102604        103229        247363   3.26411e-15
     0.025025       288.959       288.726     0.0482768       6.19104      -7.44599             0       8.45834      0.373127             0       6.38364     0.0657478             0       6.90682             0             0      0.196312   1.77298e-15       0.14647        102605        103230        247176   3.24844e-15
    0.0255255       288.965       288.731     0.0477852       5.88934       -7.2531             0       8.33777      0.362225             0       6.92706     0.0635869             0       6.55356             0             0      0.196757   1.76615e-15      0.144535        102606        103230        246957   3.23591e-15
     0.026026       288.972       288.735     0.0472751       5.59037      -7.05917             0       8.21816      0.351329             0        7.4722     0.0619709             0       6.19865             0             0      0.197203   1.75945e-15      0.142596        102606        103231        246737   3.22364e-15
    0.0265265       288.974       288.741     0.0464277       5.34104       -6.8463             0       8.11612      0.340529             0       8.04876     0.0702862             0       5.81368             0             0      0.197666   1.75525e-15      0.140582        102607        103232        246493   3.21595e-15
     0.027027       288.976       288.747      0.045544       5.09523      -6.63302             0       8.01519      0.329745             0        8.6229     0.0789237             0        5.4283             0             0      0.198133   1.75107e-15       0.13855        102608        103232        246248    3.2083e-15
    0.0275275        288.98       288.755     0.0440224       4.91086      -6.41257             0       7.93374      0.319261             0       9.15462     0.0932074             0       5.03564             0             0      0.198675    1.7472e-15      0.136197        102609        103233        245993    3.2012e-15
     0.028028       288.983       288.763     0.0425224       4.73045      -6.19216             0        7.8535      0.308817             0       9.67976      0.107615             0       4.64372             0             0      0.199222   1.74334e-15      0.133817        102610        103233        245739   3.19413e-15
    0.0285285       288.986       288.772      0.041387       4.61661      -5.97256             0        7.7935      0.299043             0       10.0942      0.124106             0       4.26409             0             0       0.19987    1.7397e-15      0.130998        102611        103233        245494   3.18746e-15
     0.029029       288.988       288.781     0.0403344       4.50524      -5.75314             0       7.73478      0.289372             0       10.4976      0.140085             0       3.88623             0             0      0.200527   1.73602e-15      0.128142        102611        103234        245252   3.18071e-15
    0.0295295       288.986       288.788     0.0406272       4.43387      -5.53658             0       7.69695      0.281389             0       10.7217      0.147758             0       3.53695             0             0      0.201325   1.73171e-15      0.124676        102612        103234        245054   3.17281e-15
      0.03003       288.984       288.795      0.040949       4.36246      -5.32043             0       7.66032      0.273543             0       10.9327      0.154292             0       3.19028             0             0      0.202134   1.72714e-15      0.121156        102613        103235        244861   3.16444e-15
    0.0305305       288.982       288.798     0.0417222       4.29043      -5.11082             0       7.64263      0.267855             0       10.9387         0.143             0       2.88434             0             0      0.203133    1.7186e-15      0.116815        102614        103235        244735   3.14879e-15
     0.031031        288.98       288.801     0.0424586       4.21678      -4.90197             0        7.6258      0.262253             0       10.9346      0.130768             0       2.58159             0             0      0.204148   1.70942e-15      0.112401        102615        103236        244615   3.13197e-15
    0.0315315        288.97       288.801      0.042637       4.11865      -4.70467             0        7.6222      0.257946             0        10.778        0.1043             0       2.32715             0             0      0.205415    1.6906e-15      0.106889        102616        103236        244563   3.09749e-15
     0.032032        288.96       288.801     0.0427695        4.0191      -4.50837             0       7.61894      0.253643             0       10.6184     0.0776578             0       2.07603             0             0      0.206696   1.67073e-15      0.101322        102617        103237        244518   3.06108e-15
    0.0325325       288.941       288.799     0.0422313       3.89887      -4.32668             0       7.62078      0.249404             0        10.414     0.0484476             0       1.87369             0             0      0.208164   1.63538e-15     0.0949376        102618        103237        244555   2.99633e-15
     0.033033       288.923       288.797     0.0416563       3.77886      -4.14588             0       7.62252      0.245127             0        10.213      0.019599             0       1.67427             0             0      0.209648   1.59825e-15      0.088488        102619        103237        244598   2.92829e-15
    0.0335335       288.895       288.793     0.0405599       3.66183      -3.97788             0       7.62267      0.240308             0         10.06   -0.00413265             0       1.51605             0             0      0.211343   1.53578e-15     0.0811168        102619        103238        244715   2.81383e-15
     0.034034       288.868       288.789     0.0394299       3.54685      -3.81054             0       7.62257      0.235442             0       9.91224    -0.0273891             0       1.36003             0             0      0.213055   1.47133e-15     0.0736759        102620        103238        244835   2.69574e-15
    0.0345345       288.829       288.783     0.0378396       3.45989      -3.65236             0       7.61895      0.229925             0       9.83706    -0.0441315             0       1.23416             0             0      0.214986   1.37983e-15     0.0652796        102621        103238        245009   2.52811e-15
     0.035035       288.789       288.777     0.0362358       3.37579      -3.49461             0       7.61523      0.224358             0       9.76502    -0.0604806             0       1.10987             0             0      0.216924   1.28642e-15      0.056851        102622        103238        245186   2.35696e-15
    0.0355355       288.744        288.77     0.0344512       3.32963      -3.34254             0       7.61011      0.218114             0       9.73463    -0.0716047             0       1.00659             0             0      0.218961   1.16745e-15     0.0479945        102622        103238        245410     2.139e-15
     0.036036       288.698       288.762     0.0326967       3.28566      -3.19066             0       7.60509      0.211826             0       9.70454    -0.0824617             0      0.904529             0             0      0.220993   1.04678e-15     0.0391605        102623        103239        245635   1.91789e-15
    0.0365365       288.651       288.753     0.0313297       3.26982      -3.04117             0       7.60137      0.204966             0       9.67829     -0.089876             0      0.818024             0             0      0.222958   9.03997e-16     0.0306159        102624        103239        245888   1.65629e-15
     0.037037       288.604       288.745     0.0300298       3.25497      -2.89193             0       7.59783      0.198073             0       9.65112    -0.0971081             0      0.732521             0             0      0.224876   7.62392e-16     0.0222758        102624        103239        246142   1.39685e-15
    0.0375375       288.571       288.736     0.0295692        3.2525      -2.74567             0       7.59649      0.190774             0       9.61239      -0.10206             0      0.659551             0             0      0.226206     6.355e-16      0.016494        102625        103239        246415   1.16436e-15
     0.038038        288.54       288.729     0.0291674       3.25037      -2.59988             0       7.59528      0.183452             0         9.573     -0.106853             0      0.587466             0             0       0.22748   5.11365e-16     0.0109563        102625        103239        246689   9.36916e-16
    0.0385385       288.526       288.723     0.0294791       3.25226      -2.45972             0        7.5957      0.175843             0        9.5255     -0.109706             0      0.526152             0             0      0.228071   4.20748e-16    0.00838597        102626        103239        246980   7.70889e-16
     0.039039       288.512       288.717     0.0298116       3.25432      -2.32008             0       7.59617      0.168213             0         9.478     -0.112396             0      0.465628             0             0      0.228643   3.32138e-16    0.00590216        102626        103239        247271   6.08538e-16
    0.0395395       288.505       288.714     0.0303899       3.25843      -2.18655             0       7.59734      0.160331             0       9.43057      -0.11315             0      0.414436             0             0      0.228979    2.6725e-16    0.00444112        102626        103239        247571   4.89651e-16
      0.04004       288.498        288.71     0.0309627       3.26264      -2.05355             0       7.59853       0.15243             0       9.38357     -0.113739             0      0.363934             0             0      0.229305   2.04148e-16    0.00302387        102627        103239        247872   3.74037e-16
    0.0405405       288.493       288.708     0.0314726       3.26795      -1.92663             0       7.59985      0.144302             0       9.34152     -0.112434             0      0.321362             0             0      0.229515   1.61594e-16    0.00211015        102627        103239        248179    2.9607e-16
     0.041041       288.488       288.706     0.0319656       3.27329       -1.8002             0       7.60116      0.136156             0           9.3     -0.110982             0      0.279394             0             0      0.229714   1.20386e-16    0.00124162        102628        103240        248485   2.20569e-16
    0.0415415       288.487       288.705     0.0322687       3.27904      -1.67922             0        7.6024      0.127807             0       9.26446     -0.107873             0       0.24417             0             0      0.229798   9.42426e-17   0.000878975        102628        103240        248785    1.7267e-16
     0.042042       288.485       288.704     0.0325593       3.28481      -1.55873             0       7.60361      0.119441             0       9.22947     -0.104631             0      0.209477             0             0      0.229877    6.8991e-17   0.000532757        102628        103240        249084   1.26404e-16
    0.0425425       288.484       288.704     0.0327133       3.29068      -1.44352             0       7.60466      0.110904             0       9.20046    -0.0999286             0      0.180564             0             0      0.229916   5.34611e-17   0.000365628        102628        103240        249365   9.79505e-17
     0.043043       288.484       288.704     0.0328597       3.29655      -1.32874             0        7.6057      0.102354             0       9.17184    -0.0951157             0      0.152122             0             0      0.229952   3.84473e-17   0.000206873        102629        103240        249645   7.04426e-17
    0.0435435       288.484       288.704     0.0329268       3.30232      -1.21845             0       7.60669     0.0936588             0        9.1474    -0.0891307             0      0.128683             0             0      0.229968   2.89178e-17   0.000137129        102629        103240        249910   5.29828e-17
     0.044044       288.483       288.703     0.0329897        3.3081      -1.10856             0       7.60758     0.0849524             0       9.12347    -0.0830503             0      0.105671             0             0      0.229984   1.97621e-17   7.12904e-05        102629        103240        250172   3.62079e-17
    0.0445445       288.484       288.703     0.0330092       3.31411      -1.00279             0        7.6074     0.0761285             0       9.10485    -0.0759807             0      0.087081             0             0      0.229989   1.44811e-17   4.59201e-05        102629        103240        250410   2.65322e-17
     0.045045       288.484       288.703     0.0330296       3.31973     -0.897335             0       7.60648     0.0672979             0       9.08265    -0.0687974             0     0.0688798             0             0      0.229995   9.43525e-18   2.20879e-05        102629        103240        250645   1.72871e-17
    0.0455455       288.484       288.704     0.0330588       3.32147     -0.795094             0       7.59799     0.0584002             0       9.02425    -0.0604642             0     0.0546036             0             0      0.229997   6.76651e-18   1.38073e-05        102629        103240        250844   1.23975e-17