# PROC_ID	PARCEL_ID	CellI	X	Y	Z	p	Ux	Uy	Uz	T	C3H8	CO2	H2O	N2	O2
2	68	33	0.033825	0	0.0005	102595	25.051	0.286539	0	288.083	3.52093e-05	1.01248e-16	5.52606e-17	0.769973	0.229992
2	69	33	0.0338352	0.000975533	0.0005	102595	25.051	0.286539	0	288.083	3.52093e-05	1.01248e-16	5.52606e-17	0.769973	0.229992
2	70	73	0.0338433	0.0017462	0.0005	102596	25.0273	0.0537454	0	288.138	0.00046908	1.79884e-15	9.81801e-16	0.769639	0.229892
2	71	153	0.0338071	0.00302213	0.0005	102601	25.0111	0.757581	0	292.768	0.0114002	1.39508e-13	7.6143e-14	0.761222	0.227378
2	72	153	0.0338768	0.00393343	0.0005	102601	25.0111	0.757581	0	292.768	0.0114002	1.39508e-13	7.6143e-14	0.761222	0.227378
2	73	233	0.033869	0.00542818	0.0005	102618	25.0298	1.41203	0	311.182	0.0375811	2.52001e-12	1.37541e-12	0.741063	0.221356
2	74	274	0.0340834	0.00654439	0.0005	102652	26.2002	-0.497051	0	329.262	0.0918855	7.64308e-12	4.17156e-12	0.699248	0.208866
2	75	313	0.0332616	0.00787552	0.0005	102625	24.1496	-0.414665	0	331.599	0.125145	2.08893e-11	1.14013e-11	0.673638	0.201217
2	76	352	0.0323928	0.00898554	0.0005	102624	22.1512	0.230882	0	333.383	0.171276	4.62866e-11	2.5263e-11	0.638118	0.190607
2	77	430	0.0308625	0.010714	0.0005	102622	17.7632	1.66506	0	344.433	0.252191	1.03478e-10	5.64781e-11	0.575813	0.171996
2	78	508	0.0280637	0.0122058	0.0005	102601	14.8607	1.40492	0	357.612	0.352052	2.13112e-10	1.16316e-10	0.49892	0.149028
2	79	503	0.0236059	0.0127353	0.0005	102596	14.4861	-3.22522	0	399.032	0.368754	5.19918e-09	2.83769e-09	0.486059	0.145186
2	80	542	0.0228423	0.0134519	0.0005	102614	13.8799	-2.64612	0	407.22	0.497852	4.68913e-09	2.55931e-09	0.386654	0.115494
2	81	463	0.0238328	0.0111691	0.0005	102604	15.0174	-3.98897	0	394.541	0.341159	7.9368e-09	4.33187e-09	0.507308	0.151533
2	82	2273	-0.0239966	0.011	0.0005	101759	22.3692	-0.138514	0	288.24	3.78859e-28	7.74514e-38	4.22727e-38	0.77	0.23
2	83	2298	-0.0239966	0.018	0.0005	102717	23.1431	0.125117	0	287.787	3.41734e-29	7.55343e-39	4.12263e-39	0.77	0.23
2	84	741	0.021918	0.0185064	0.0005	102596	18.1821	-6.72441	0	291.952	0.192032	2.40725e-11	1.31387e-11	0.622135	0.185833
2	85	666	0.0261244	0.0165985	0.0005	102634	18.9086	-2.90713	0	330.24	0.368314	3.88053e-11	2.11798e-11	0.486398	0.145288
2	86	674	0.0341159	0.016079	0.0005	102583	28.2834	-4.93328	0	290.515	0.118182	1.45843e-12	7.96003e-13	0.679	0.202818
2	87	675	0.0350027	0.0160771	0.0005	102598	28.3158	-3.15557	0	291.371	0.112644	9.99282e-13	5.45404e-13	0.683264	0.204092
2	88	674	0.0349866	0.0162172	0.0005	102583	28.2834	-4.93328	0	290.515	0.118182	1.45843e-12	7.96003e-13	0.679	0.202818
2	89	675	0.0352189	0.0163776	0.0005	102598	28.3158	-3.15557	0	291.371	0.112644	9.99282e-13	5.45404e-13	0.683264	0.204092
2	90	675	0.0352507	0.0166668	0.0005	102598	28.3158	-3.15557	0	291.371	0.112644	9.99282e-13	5.45404e-13	0.683264	0.204092
2	91	714	0.0345118	0.0170372	0.0005	102563	28.7581	-4.88238	0	289.018	0.0751338	2.62246e-13	1.43133e-13	0.712147	0.212719
2	92	713	0.0332774	0.017532	0.0005	102565	29.043	-5.65454	0	289.116	0.0822253	4.13609e-13	2.25746e-13	0.706687	0.211088
2	93	751	0.0317559	0.0182116	0.0005	102577	27.1083	-6.33952	0	288.413	0.0645394	2.42614e-13	1.32418e-13	0.720305	0.215156
2	94	789	0.0294328	0.0192449	0.0005	102593	24.1123	-6.53375	0	288.109	0.049189	4.89018e-14	2.66904e-14	0.732124	0.218687
2	95	865	0.0253167	0.021553	0.0005	102632	19.7872	-7.59781	0	288.068	0.0338262	3.82089e-15	2.08542e-15	0.743954	0.22222
2	96	1134	0.01438	0.02863	0.0005	102679	-1.9109	7.21636	0	288.203	0.027854	8.68911e-16	4.74248e-16	0.748552	0.223594
2	97	2448	-0.0239966	0.025	0.0005	102732	23.1514	-0.130185	0	287.792	2.3793e-30	5.11728e-40	2.79299e-40	0.77	0.23
2	106	28	0.0282758	0	0.0005	102612	25.6686	0.127079	0	288.147	1.7204e-05	6.87323e-16	3.75138e-16	0.769987	0.229996
2	107	28	0.0283071	0.000705888	0.0005	102612	25.6686	0.127079	0	288.147	1.7204e-05	6.87323e-16	3.75138e-16	0.769987	0.229996
2	108	68	0.0283548	0.00122274	0.0005	102609	25.7722	-0.147539	0	288.148	0.00024282	1.9162e-14	1.04585e-14	0.769813	0.229944
2	109	68	0.0284385	0.00193363	0.0005	102609	25.7722	-0.147539	0	288.148	0.00024282	1.9162e-14	1.04585e-14	0.769813	0.229944
2	110	108	0.0285849	0.00260805	0.0005	102605	25.9955	0.164163	0	288.186	0.00231714	3.32245e-13	1.81338e-13	0.768216	0.229467
2	111	148	0.0286778	0.00308829	0.0005	102600	26.2665	0.169213	0	288.584	0.016639	4.53505e-12	2.47521e-12	0.757188	0.226173
2	112	148	0.0288327	0.00371602	0.0005	102600	26.2665	0.169213	0	288.584	0.016639	4.53505e-12	2.47521e-12	0.757188	0.226173
2	113	188	0.0289118	0.00422953	0.0005	102600	26.8066	0.75902	0	291.083	0.0740442	4.00959e-11	2.18842e-11	0.712986	0.21297
2	114	188	0.0285978	0.00434911	0.0005	102600	26.8066	0.75902	0	291.083	0.0740442	4.00959e-11	2.18842e-11	0.712986	0.21297
2	115	187	0.0275939	0.00404472	0.0005	102599	27.3058	-0.27872	0	295.596	0.149188	1.16497e-10	6.35833e-11	0.655125	0.195687
2	116	145	0.0253407	0.00375596	0.0005	102592	25.6648	-2.3794	0	292.068	0.0709435	4.60506e-11	2.51343e-11	0.715373	0.213683
2	117	224	0.0245305	0.00508113	0.0005	102558	24.7768	-6.50756	0	341.925	0.25835	8.95062e-10	4.88521e-10	0.571071	0.17058
2	118	225	0.0256067	0.00526359	0.0005	102602	26.3785	-5.63643	0	333.682	0.276319	8.25568e-10	4.50591e-10	0.557235	0.166447
2	119	571	0.01159	0.0142228	0.0005	102550	14.8623	-3.23449	0	532.612	0.643056	4.87697e-07	2.66183e-07	0.274847	0.0820964
2	120	2273	-0.0239965	0.011	0.0005	101759	22.3692	-0.138514	0	288.24	3.78859e-28	7.74514e-38	4.22727e-38	0.77	0.23
2	121	2298	-0.0239966	0.018	0.0005	102717	23.1431	0.125117	0	287.787	3.41734e-29	7.55343e-39	4.12263e-39	0.77	0.23
2	122	732	0.012066	0.018492	0.0005	102559	13.4546	-0.949799	0	329.073	0.450962	2.59831e-10	1.41815e-10	0.42276	0.126279
2	123	662	0.0222979	0.016819	0.0005	102612	13.3688	-5.22898	0	331.305	0.291638	4.70782e-11	2.56951e-11	0.545439	0.162923
2	124	663	0.0238036	0.0165511	0.0005	102610	14.7501	-5.66416	0	331.131	0.291692	3.37068e-11	1.8397e-11	0.545397	0.162911
2	125	705	0.0254809	0.0170679	0.0005	102621	19.9813	-5.54534	0	300.063	0.139576	4.30739e-12	2.35096e-12	0.662526	0.197897
2	126	706	0.0260232	0.0176587	0.0005	102635	21.4006	-4.60535	0	300.858	0.152522	4.78321e-12	2.61065e-12	0.652558	0.19492
2	127	746	0.0261555	0.0182496	0.0005	102632	22.4384	-5.7938	0	289.153	0.0545613	4.91083e-13	2.68031e-13	0.727988	0.217451
2	128	746	0.0261369	0.0188152	0.0005	102632	22.4384	-5.7938	0	289.153	0.0545613	4.91083e-13	2.68031e-13	0.727988	0.217451
2	129	785	0.0257581	0.0194512	0.0005	102626	21.3355	-7.27572	0	288.195	0.0254121	7.21134e-14	3.93592e-14	0.750433	0.224155
2	130	825	0.0251269	0.0203067	0.0005	102629	21.5669	-7.74334	0	288.133	0.0209999	2.05834e-14	1.12344e-14	0.75383	0.22517
2	131	864	0.0244755	0.0214043	0.0005	102641	20.3559	-8.06427	0	288.128	0.0210158	1.16172e-14	6.34064e-15	0.753818	0.225166
2	132	903	0.0233125	0.0227973	0.0005	102670	19.6367	-7.36966	0	288.132	0.0234304	5.96183e-15	3.25394e-15	0.751959	0.224611
2	133	1097	0.0172757	0.0275648	0.0005	102781	4.30556	4.2061	0	288.15	0.0533238	1.32163e-15	7.21342e-16	0.728941	0.217736
2	134	1094	0.0143065	0.0276483	0.0005	102680	5.65953	7.34353	0	288.286	0.0106232	7.31687e-16	3.99352e-16	0.76182	0.227557
2	135	2448	-0.0239966	0.025	0.0005	102732	23.1514	-0.130185	0	287.792	2.3793e-30	5.11728e-40	2.79299e-40	0.77	0.23
2	144	21	0.0212801	0	0.0005	102581	23.5181	0.238037	0	288.179	7.25291e-06	3.33781e-16	1.82177e-16	0.769994	0.229998
2	145	21	0.0212735	0.000844287	0.0005	102581	23.5181	0.238037	0	288.179	7.25291e-06	3.33781e-16	1.82177e-16	0.769994	0.229998
2	146	61	0.0212401	0.00154397	0.0005	102586	23.3458	-0.427847	0	288.185	0.000139882	1.27096e-14	6.93687e-15	0.769892	0.229968
2	147	101	0.0211128	0.00257153	0.0005	102595	23.0889	0.196788	0	288.278	0.00112463	1.2647e-13	6.90266e-14	0.769134	0.229741
2	148	141	0.0210911	0.00332713	0.0005	102594	22.5472	-0.294654	0	289.474	0.00813552	1.59898e-12	8.72718e-13	0.763736	0.228129
2	149	180	0.0208745	0.00455792	0.0005	102585	22.723	1.55818	0	291.75	0.0127093	1.29096e-12	7.04599e-13	0.760214	0.227077
2	150	220	0.0209254	0.00568774	0.0005	102575	23.4315	1.54974	0	300.137	0.0262637	3.78094e-12	2.06362e-12	0.749777	0.223959
2	151	300	0.0207319	0.00727253	0.0005	102574	22.9855	2.37168	0	331.595	0.0628937	2.89285e-11	1.57891e-11	0.721572	0.215534
2	152	340	0.0209684	0.0085206	0.0005	102613	23.6141	2.87042	0	350.9	0.0907475	2.85059e-10	1.55584e-10	0.700124	0.209128
2	153	420	0.0205287	0.0103504	0.0005	102640	21.2119	0.465909	0	434.267	0.198454	8.3979e-09	4.58354e-09	0.61719	0.184356
2	154	497	0.0178405	0.0124172	0.0005	102579	13.7441	4.17447	0	469.037	0.202936	6.08008e-08	3.31848e-08	0.613739	0.183325
2	155	538	0.018686	0.0131058	0.0005	102590	13.8225	0.722882	0	464.176	0.446528	8.77804e-08	4.79102e-08	0.426174	0.127299
2	156	615	0.0157121	0.0153621	0.0005	102574	11.8641	1.54089	0	492.364	0.500448	2.52042e-07	1.37564e-07	0.384655	0.114897
2	157	572	0.0126147	0.0141112	0.0005	102548	13.3996	-3.31999	0	538.513	0.560346	9.52203e-07	5.19709e-07	0.338534	0.101119
2	158	2273	-0.0239966	0.011	0.0005	101759	22.3692	-0.138514	0	288.24	3.78859e-28	7.74514e-38	4.22727e-38	0.77	0.23
2	159	2298	-0.0239966	0.018	0.0005	102717	23.1431	0.125117	0	287.787	3.41734e-29	7.55343e-39	4.12263e-39	0.77	0.23
2	160	771	0.0119086	0.0197333	0.0005	102550	20.4305	0.401867	0	296.541	0.264397	1.19412e-11	6.51746e-12	0.566414	0.169189
2	161	858	0.018548	0.0214458	0.0005	102653	22.2866	-0.618254	0	291.301	0.134177	8.76068e-12	4.78154e-12	0.666684	0.199139
2	162	820	0.0207715	0.0208182	0.0005	102628	22.1598	-5.88117	0	290.792	0.144141	8.77642e-12	4.79014e-12	0.659012	0.196848
2	163	821	0.0213583	0.0206329	0.0005	102633	21.7671	-7.21287	0	289.129	0.0733057	2.36205e-12	1.2892e-12	0.713555	0.21314
2	164	821	0.0214756	0.0209338	0.0005	102633	21.7671	-7.21287	0	289.129	0.0733057	2.36205e-12	1.2892e-12	0.713555	0.21314
2	165	861	0.0214913	0.0214874	0.0005	102655	21.2718	-6.78845	0	288.439	0.0267737	3.58797e-13	1.9583e-13	0.749384	0.223842
2	166	901	0.0213909	0.0220729	0.0005	102688	20.8783	-6.32921	0	288.255	0.013684	4.28926e-14	2.34106e-14	0.759463	0.226853
2	167	901	0.0210594	0.0228003	0.0005	102688	20.8783	-6.32921	0	288.255	0.013684	4.28926e-14	2.34106e-14	0.759463	0.226853
2	168	940	0.0207024	0.0234953	0.0005	102720	19.5939	-4.8163	0	288.289	0.0105051	1.97309e-14	1.0769e-14	0.761911	0.227584
2	169	980	0.0204425	0.0242256	0.0005	102753	18.0383	-5.13924	0	288.252	0.0159567	3.94698e-15	2.15425e-15	0.757713	0.22633
2	170	1019	0.0193465	0.025474	0.0005	102787	15.0862	-0.631822	0	288.212	0.0199769	1.80313e-15	9.84142e-16	0.754618	0.225405
2	171	1057	0.0172835	0.0267057	0.0005	102787	11.4505	3.31819	0	288.277	0.0145782	1.53987e-15	8.40456e-16	0.758775	0.226647
2	172	1012	0.0126763	0.0259538	0.0005	102571	20.5755	8.11733	0	288.199	0.00521774	2.71956e-16	1.48432e-16	0.765982	0.2288
2	173	2448	-0.0239966	0.025	0.0005	102732	23.1514	-0.130185	0	287.792	2.3793e-30	5.11728e-40	2.79299e-40	0.77	0.23
2	182	15	0.0158804	0	0.0005	102534	23.7576	0.208132	0	288.155	1.67803e-08	1.20098e-20	6.55491e-21	0.77	0.23
2	183	15	0.0159022	0.000782723	0.0005	102534	23.7576	0.208132	0	288.155	1.67803e-08	1.20098e-20	6.55491e-21	0.77	0.23
2	184	55	0.0159426	0.0014953	0.0005	102537	23.8649	-0.417761	0	288.158	5.2197e-07	1.26725e-19	6.91662e-20	0.77	0.23
2	185	95	0.0159895	0.00229993	0.0005	102541	24.0971	0.0205532	0	288.163	1.11814e-05	3.88072e-18	2.11808e-18	0.769991	0.229997
2	186	136	0.0160868	0.00305047	0.0005	102545	24.3262	-0.098713	0	288.179	0.000128415	4.60502e-17	2.5134e-17	0.769901	0.22997
2	187	136	0.0162193	0.00377756	0.0005	102545	24.3262	-0.098713	0	288.179	0.000128415	4.60502e-17	2.5134e-17	0.769901	0.22997
2	188	176	0.0163938	0.00458354	0.0005	102549	24.6365	0.499451	0	288.253	0.00143129	1.68268e-15	9.18397e-16	0.768898	0.229671
2	189	216	0.0165969	0.00536052	0.0005	102550	24.8872	0.763062	0	288.548	0.0121691	3.57253e-14	1.94987e-14	0.76063	0.227201
2	190	256	0.0168676	0.00612343	0.0005	102568	25.7918	1.28849	0	290.116	0.0525744	5.65178e-13	3.08472e-13	0.729518	0.217908
2	191	297	0.0171574	0.00700602	0.0005	102557	23.5359	2.98236	0	295.978	0.0845983	1.78321e-12	9.7327e-13	0.704859	0.210542
2	192	297	0.0172252	0.00783065	0.0005	102557	23.5359	2.98236	0	295.978	0.0845983	1.78321e-12	9.7327e-13	0.704859	0.210542
2	193	337	0.0171326	0.00832876	0.0005	102549	23.6305	3.93225	0	301.724	0.130713	1.33928e-11	7.30976e-12	0.669351	0.199936
2	194	296	0.0166213	0.00778856	0.0005	102551	24.9846	2.64499	0	294.074	0.114244	4.93764e-12	2.69495e-12	0.682032	0.203724
2	195	528	0.00817523	0.0135606	0.0005	102571	16.4946	-0.133427	0	439.524	0.58745	5.67017e-10	3.09476e-10	0.317664	0.0948866
2	196	2273	-0.0239966	0.011	0.0005	101759	22.3692	-0.138514	0	288.24	3.78859e-28	7.74514e-38	4.22727e-38	0.77	0.23
2	197	2298	-0.0239966	0.018	0.0005	102717	23.1431	0.125117	0	287.787	3.41734e-29	7.55343e-39	4.12263e-39	0.77	0.23
2	198	725	0.00552139	0.018612	0.0005	102693	17.3433	-2.42022	0	292.478	0.316703	1.8531e-15	1.01141e-15	0.526138	0.157158
2	199	773	0.0138447	0.0194998	0.0005	102584	19.7679	-1.08583	0	299.72	0.228864	2.88523e-11	1.57475e-11	0.593775	0.177361
2	200	815	0.0151401	0.0202608	0.0005	102631	20.469	1.18503	0	299.992	0.16606	2.94318e-11	1.60638e-11	0.642134	0.191806
2	201	855	0.0156066	0.0210862	0.0005	102643	21.3353	1.95175	0	291.373	0.0682309	4.56128e-12	2.48953e-12	0.717462	0.214307
2	202	855	0.0156988	0.0217669	0.0005	102643	21.3353	1.95175	0	291.373	0.0682309	4.56128e-12	2.48953e-12	0.717462	0.214307
2	203	895	0.01596	0.0225372	0.0005	102670	21.3084	2.4829	0	288.943	0.0258981	7.31342e-13	3.99163e-13	0.750058	0.224043
2	204	936	0.0161219	0.0232233	0.0005	102694	19.8826	2.21634	0	288.449	0.0145504	2.14956e-13	1.17322e-13	0.758796	0.226653
2	205	936	0.0160556	0.0238477	0.0005	102694	19.8826	2.21634	0	288.449	0.0145504	2.14956e-13	1.17322e-13	0.758796	0.226653
2	206	975	0.0159966	0.0244708	0.0005	102703	20.5307	4.18684	0	288.298	0.00423833	1.58011e-14	8.62418e-15	0.766736	0.229025
2	207	1015	0.0159873	0.0251872	0.0005	102714	18.6482	5.38593	0	288.317	0.00423852	4.87488e-15	2.66069e-15	0.766736	0.229025
2	208	1015	0.0155618	0.0259106	0.0005	102714	18.6482	5.38593	0	288.317	0.00423852	4.87488e-15	2.66069e-15	0.766736	0.229025
2	209	1054	0.0143525	0.0263369	0.0005	102684	14.2995	7.06879	0	288.301	0.00552361	1.02435e-15	5.59085e-16	0.765747	0.22873
2	210	966	0.00686273	0.024313	0.0005	102579	24.029	0.357178	0	288.031	0.00835685	3.22517e-16	1.76028e-16	0.763565	0.228078
2	211	2448	-0.0239966	0.025	0.0005	102732	23.1514	-0.130185	0	287.792	2.3793e-30	5.11728e-40	2.79299e-40	0.77	0.23
2	220	9	0.00961279	0	0.0005	102498	21.5094	0.0397014	0	288.058	4.7559e-09	2.71353e-21	1.48104e-21	0.77	0.23
2	221	9	0.00960918	0.000784544	0.0005	102498	21.5094	0.0397014	0	288.058	4.7559e-09	2.71353e-21	1.48104e-21	0.77	0.23
2	222	49	0.00959358	0.00153424	0.0005	102496	21.4971	-0.93115	0	288.059	2.78328e-07	6.41308e-20	3.50023e-20	0.77	0.23
2	223	89	0.00952854	0.00235811	0.0005	102495	21.2892	-0.796435	0	288.059	8.59004e-06	2.24974e-18	1.2279e-18	0.769993	0.229998
2	224	129	0.00951119	0.003105	0.0005	102492	21.1467	-1.90556	0	288.061	0.000177908	7.40931e-17	4.04397e-17	0.769863	0.229959
2	225	129	0.00939851	0.0039508	0.0005	102492	21.1467	-1.90556	0	288.061	0.000177908	7.40931e-17	4.04397e-17	0.769863	0.229959
2	226	169	0.00926992	0.00479924	0.0005	102496	20.4671	-1.46895	0	288.123	0.00244058	1.91782e-15	1.04674e-15	0.768121	0.229439
2	227	209	0.00917921	0.00568822	0.0005	102489	20.0024	-2.81516	0	288.901	0.0171774	3.19093e-14	1.7416e-14	0.756773	0.226049
2	228	248	0.00890289	0.00682652	0.0005	102487	18.9349	0.430183	0	289.664	0.0257831	1.42952e-14	7.80224e-15	0.750147	0.22407
2	229	289	0.00901079	0.00785646	0.0005	102473	20.3342	-3.40146	0	311.275	0.128057	2.86368e-12	1.56299e-12	0.671396	0.200547
2	230	368	0.00822593	0.00952799	0.0005	102464	17.3704	1.33928	0	427.132	0.128682	7.87458e-11	4.29791e-11	0.670915	0.200403
2	231	408	0.00885258	0.0106984	0.0005	102497	23.5622	0.572638	0	426.108	0.110281	5.62287e-11	3.06894e-11	0.685084	0.204635
2	232	488	0.00825101	0.0129524	0.0005	102553	19.3316	1.97692	0	428.317	0.363613	1.48667e-10	8.1142e-11	0.490018	0.146369
2	233	525	0.00537791	0.0136337	0.0005	102535	6.46669	1.87784	0	386.413	0.336376	2.62614e-12	1.43334e-12	0.510991	0.152634
2	234	2273	-0.0239966	0.011	0.0005	101759	22.3692	-0.138514	0	288.24	3.78859e-28	7.74514e-38	4.22727e-38	0.77	0.23
2	235	2298	-0.0239966	0.018	0.0005	102717	23.1431	0.125117	0	287.787	3.41734e-29	7.55343e-39	4.12263e-39	0.77	0.23
2	236	721	0.00187444	0.0186313	0.0005	102587	23.9234	-1.23167	0	288.084	0.0487042	1.38495e-17	7.55899e-18	0.732498	0.218798
2	237	808	0.00823233	0.0202558	0.0005	102611	25.8996	3.90443	0	289.799	0.114274	2.43659e-14	1.32988e-14	0.682009	0.203717
2	238	809	0.00990044	0.020868	0.0005	102587	26.0525	3.77482	0	290.182	0.131357	1.65564e-13	9.0364e-14	0.668855	0.199788
2	239	850	0.010516	0.0212384	0.0005	102568	27.7158	3.23987	0	288.358	0.0372862	2.74455e-14	1.49796e-14	0.74129	0.221424
2	240	850	0.010752	0.0216291	0.0005	102568	27.7158	3.23987	0	288.358	0.0372862	2.74455e-14	1.49796e-14	0.74129	0.221424
2	241	891	0.0110143	0.022069	0.0005	102585	27.0322	3.53544	0	288.129	0.00826679	3.67979e-15	2.00841e-15	0.763635	0.228099
2	242	891	0.0111682	0.0224912	0.0005	102585	27.0322	3.53544	0	288.129	0.00826679	3.67979e-15	2.00841e-15	0.763635	0.228099
2	243	891	0.0111693	0.022885	0.0005	102585	27.0322	3.53544	0	288.129	0.00826679	3.67979e-15	2.00841e-15	0.763635	0.228099
2	244	931	0.0111074	0.0232745	0.0005	102566	27.2696	5.40908	0	288.113	0.00403875	6.79933e-16	3.71105e-16	0.76689	0.229071
2	245	931	0.0111056	0.0237178	0.0005	102566	27.2696	5.40908	0	288.113	0.00403875	6.79933e-16	3.71105e-16	0.76689	0.229071
2	246	970	0.0107407	0.0240606	0.0005	102526	27.2197	5.60888	0	288.077	0.00547678	2.2421e-16	1.22373e-16	0.765783	0.22874
2	247	969	0.00941487	0.024154	0.0005	102519	27.0541	4.05735	0	288.031	0.00649058	2.39462e-16	1.30698e-16	0.765002	0.228507
2	248	961	0.00174386	0.0243511	0.0005	102633	22.3783	0.528101	0	288.063	0.00258588	1.00777e-16	5.50039e-17	0.768009	0.229405
2	249	2448	-0.0239966	0.025	0.0005	102732	23.1514	-0.130185	0	287.792	2.3793e-30	5.11728e-40	2.79299e-40	0.77	0.23
2	258	4	0.00405433	0	0.0005	102448	20.0864	-0.106679	0	288.006	1.27579e-14	7.03625e-24	3.84036e-24	0.77	0.23
2	259	4	0.00406533	0.000795595	0.0005	102448	20.0864	-0.106679	0	288.006	1.27579e-14	7.03625e-24	3.84036e-24	0.77	0.23
2	260	44	0.00407912	0.00161167	0.0005	102447	20.1668	-0.6139	0	288.006	5.95885e-13	5.404e-23	2.94948e-23	0.77	0.23
2	261	84	0.00408031	0.00239827	0.0005	102445	20.086	-0.850453	0	288.008	2.97676e-11	3.57339e-22	1.95034e-22	0.77	0.23
2	262	124	0.00412504	0.00322128	0.0005	102443	20.3551	-1.24181	0	288.007	1.63061e-09	2.29231e-21	1.25113e-21	0.77	0.23
2	263	164	0.00414796	0.00401985	0.0005	102442	20.2802	-1.58952	0	288.01	6.48832e-08	1.37705e-20	7.51591e-21	0.77	0.23
2	264	164	0.00419334	0.00481819	0.0005	102442	20.2802	-1.58952	0	288.01	6.48832e-08	1.37705e-20	7.51591e-21	0.77	0.23
2	265	204	0.00430209	0.00566341	0.0005	102443	20.7738	-1.61359	0	288.008	2.14674e-06	7.71852e-20	4.21274e-20	0.769998	0.23
2	266	244	0.00437834	0.00643176	0.0005	102449	21.1019	-2.32757	0	288.016	3.37508e-05	3.05194e-19	1.66574e-19	0.769974	0.229992
2	267	284	0.00453538	0.00731278	0.0005	102459	21.6216	-1.15931	0	288.019	0.000521515	1.66255e-18	9.07413e-19	0.769598	0.22988
2	268	324	0.0047825	0.00811683	0.0005	102457	23.1662	-2.85354	0	288.709	0.00745886	2.81428e-17	1.53602e-17	0.764257	0.228284
2	269	324	0.00495716	0.00894356	0.0005	102457	23.1662	-2.85354	0	288.709	0.00745886	2.81428e-17	1.53602e-17	0.764257	0.228284
2	270	365	0.00506072	0.00994794	0.0005	102480	19.8867	1.40375	0	351.185	0.0305607	3.27825e-14	1.78925e-14	0.746468	0.222971
2	271	362	0.00231759	0.00933494	0.0005	102427	19.3945	-12.3695	0	288.391	0.23596	4.65146e-17	2.53875e-17	0.588311	0.175729
2	272	2273	-0.0239967	0.011	0.0005	101759	22.3692	-0.138514	0	288.24	3.78859e-28	7.74514e-38	4.22727e-38	0.77	0.23
2	273	2298	-0.0239966	0.018	0.0005	102717	23.1431	0.125117	0	287.787	3.41734e-29	7.55343e-39	4.12263e-39	0.77	0.23
2	274	2277	-0.00290817	0.0186269	0.0005	102621	23.1285	0.290752	0	288.013	9.61883e-06	1.21681e-19	6.64131e-20	0.769993	0.229998
2	275	723	0.0030891	0.0189978	0.0005	102665	21.4733	-3.43345	0	288.039	0.114627	6.29259e-17	3.43447e-17	0.681737	0.203636
2	276	763	0.00387737	0.0194873	0.0005	102605	26.1735	-0.960871	0	288.003	0.0153489	1.00118e-17	5.46441e-18	0.758181	0.22647
2	277	804	0.00403885	0.0200293	0.0005	102651	24.6127	-0.622753	0	288.007	0.00642463	6.95857e-18	3.79796e-18	0.765053	0.228522
2	278	804	0.00404078	0.020535	0.0005	102651	24.6127	-0.622753	0	288.007	0.00642463	6.95857e-18	3.79796e-18	0.765053	0.228522
2	279	844	0.00417798	0.021062	0.0005	102603	26.5355	0.664769	0	287.981	0.000523189	1.72018e-18	9.38868e-19	0.769597	0.22988
2	280	844	0.00427823	0.0215601	0.0005	102603	26.5355	0.664769	0	287.981	0.000523189	1.72018e-18	9.38868e-19	0.769597	0.22988
2	281	884	0.0042288	0.0220312	0.0005	102633	26.1599	0.293734	0	287.989	0.000112779	4.02178e-18	2.19507e-18	0.769913	0.229974
2	282	884	0.00414666	0.0224869	0.0005	102633	26.1599	0.293734	0	287.989	0.000112779	4.02178e-18	2.19507e-18	0.769913	0.229974
2	283	884	0.00415695	0.0229715	0.0005	102633	26.1599	0.293734	0	287.989	0.000112779	4.02178e-18	2.19507e-18	0.769913	0.229974
2	284	923	0.00394444	0.0234655	0.0005	102601	26.5776	0.0112105	0	288.009	0.00070928	2.87014e-17	1.56651e-17	0.769454	0.229837
2	285	923	0.00310938	0.0239303	0.0005	102601	26.5776	0.0112105	0	288.009	0.00070928	2.87014e-17	1.56651e-17	0.769454	0.229837
2	286	2427	-0.00298325	0.024378	0.0005	102631	23.1072	-0.26901	0	288.018	5.23919e-07	4.8904e-20	2.66916e-20	0.77	0.23
2	287	2448	-0.0239966	0.025	0.0005	102732	23.1514	-0.130185	0	287.792	2.3793e-30	5.11728e-40	2.79299e-40	0.77	0.23
2	296	2001	-0.00178907	0	0.0005	102296	18.5884	-0.149008	0	287.897	2.00392e-19	4.43374e-29	2.41992e-29	0.77	0.23
2	297	2001	-0.00178751	0.000771291	0.0005	102296	18.5884	-0.149008	0	287.897	2.00392e-19	4.43374e-29	2.41992e-29	0.77	0.23
2	298	2026	-0.00178328	0.00157112	0.0005	102297	18.5664	-0.456139	0	287.895	1.13955e-17	1.06632e-27	5.81991e-28	0.77	0.23
2	299	2051	-0.00178208	0.00232689	0.0005	102302	18.4454	-0.746383	0	287.899	1.22567e-15	3.92209e-26	2.14066e-26	0.77	0.23
2	300	2076	-0.00177047	0.00312341	0.0005	102305	18.365	-1.07235	0	287.9	1.64573e-13	2.92843e-24	1.59833e-24	0.77	0.23
2	301	2076	-0.00176439	0.00389341	0.0005	102305	18.365	-1.07235	0	287.9	1.64573e-13	2.92843e-24	1.59833e-24	0.77	0.23
2	302	2101	-0.00175813	0.00465063	0.0005	102318	18.0934	-1.32705	0	287.905	1.268e-11	3.25805e-23	1.77823e-23	0.77	0.23
2	303	2126	-0.0017385	0.00544838	0.0005	102319	17.9118	-1.73501	0	287.904	7.48764e-10	2.96788e-22	1.61985e-22	0.77	0.23
2	304	2151	-0.00174098	0.00618651	0.0005	102343	17.3895	-1.85022	0	287.914	3.33176e-08	2.36374e-21	1.29012e-21	0.77	0.23
2	305	2151	-0.00171942	0.00696957	0.0005	102343	17.3895	-1.85022	0	287.914	3.33176e-08	2.36374e-21	1.29012e-21	0.77	0.23
2	306	2176	-0.00171085	0.00773525	0.0005	102333	17.0614	-2.42808	0	287.913	1.12839e-06	1.76936e-20	9.65709e-21	0.769999	0.23
2	307	2201	-0.001734	0.0084715	0.0005	102381	16.1506	-2.24818	0	287.937	3.87149e-05	1.32907e-19	7.254e-20	0.76997	0.229991
2	308	2226	-0.00185283	0.0092816	0.0005	102353	14.7203	-2.80728	0	287.966	0.000846771	8.18716e-19	4.46852e-19	0.769348	0.229805
2	309	2253	-0.00328594	0.0100539	0.0005	102306	12.4615	-0.656685	0	287.943	1.81059e-05	1.02843e-19	5.61312e-20	0.769986	0.229996
2	310	2273	-0.0239965	0.011	0.0005	101759	22.3692	-0.138514	0	288.24	3.78859e-28	7.74514e-38	4.22727e-38	0.77	0.23
2	311	2298	-0.0239966	0.018	0.0005	102717	23.1431	0.125117	0	287.787	3.41734e-29	7.55343e-39	4.12263e-39	0.77	0.23
2	312	2282	-0.00740806	0.0186058	0.0005	102648	23.3373	0.119648	0	287.984	2.46898e-11	2.12034e-22	1.15727e-22	0.77	0.23
2	313	2302	-0.00246359	0.0191043	0.0005	102619	26.7618	-0.113364	0	287.966	5.78765e-07	3.18572e-20	1.73875e-20	0.77	0.23
2	314	2301	-0.00192057	0.0195794	0.0005	102602	26.7576	-0.0559183	0	287.961	8.54308e-06	1.16464e-19	6.35657e-20	0.769993	0.229998
2	315	2326	-0.00176345	0.020067	0.0005	102628	26.738	-0.0786874	0	287.951	2.98414e-07	2.06379e-20	1.12641e-20	0.77	0.23
2	316	2326	-0.00176118	0.0205523	0.0005	102628	26.738	-0.0786874	0	287.951	2.98414e-07	2.06379e-20	1.12641e-20	0.77	0.23
2	317	2351	-0.00173173	0.0210293	0.0005	102608	27.2307	-0.0216071	0	287.935	2.99962e-09	2.02697e-21	1.10631e-21	0.77	0.23
2	318	2351	-0.00171113	0.0215009	0.0005	102608	27.2307	-0.0216071	0	287.935	2.99962e-09	2.02697e-21	1.10631e-21	0.77	0.23
2	319	2351	-0.00173179	0.0219746	0.0005	102608	27.2307	-0.0216071	0	287.935	2.99962e-09	2.02697e-21	1.10631e-21	0.77	0.23
2	320	2376	-0.00176077	0.0224489	0.0005	102633	26.6552	-0.181454	0	287.954	2.32425e-08	5.79894e-21	3.16504e-21	0.77	0.23
2	321	2376	-0.00176354	0.0229334	0.0005	102633	26.6552	-0.181454	0	287.954	2.32425e-08	5.79894e-21	3.16504e-21	0.77	0.23
2	322	2401	-0.00192174	0.0234214	0.0005	102616	26.6396	0.0280347	0	287.968	5.57381e-07	5.0935e-20	2.78001e-20	0.77	0.23
2	323	2402	-0.00246367	0.023897	0.0005	102628	26.598	-0.0136417	0	287.971	4.23198e-08	9.42739e-21	5.14543e-21	0.77	0.23
2	324	2432	-0.00747715	0.0243979	0.0005	102641	23.3279	-0.116395	0	287.982	1.17751e-12	4.19643e-23	2.29039e-23	0.77	0.23
2	325	2448	-0.0239966	0.025	0.0005	102732	23.1514	-0.130185	0	287.792	2.3793e-30	5.11728e-40	2.79299e-40	0.77	0.23
2	334	2007	-0.0076789	0	0.0005	102138	18.4792	-0.0824739	0	287.784	3.72382e-27	5.70652e-37	3.11459e-37	0.77	0.23
2	335	2007	-0.00767899	0.000771761	0.0005	102138	18.4792	-0.0824739	0	287.784	3.72382e-27	5.70652e-37	3.11459e-37	0.77	0.23
2	336	2032	-0.00767799	0.00156482	0.0005	102138	18.4684	-0.13999	0	287.785	1.94575e-25	3.53037e-35	1.92686e-35	0.77	0.23
2	337	2057	-0.00767706	0.00232678	0.0005	102139	18.4206	-0.292478	0	287.785	1.19652e-23	2.19399e-33	1.19747e-33	0.77	0.23
2	338	2082	-0.00767293	0.00311871	0.0005	102139	18.3895	-0.327754	0	287.784	5.4706e-22	1.03522e-31	5.65016e-32	0.77	0.23
2	339	2082	-0.00767043	0.00389277	0.0005	102139	18.3895	-0.327754	0	287.784	5.4706e-22	1.03522e-31	5.65016e-32	0.77	0.23
2	340	2107	-0.00766784	0.0046591	0.0005	102142	18.2982	-0.453965	0	287.785	2.54653e-20	5.02533e-30	2.7428e-30	0.77	0.23
2	341	2132	-0.00765989	0.00545585	0.0005	102143	18.2557	-0.454201	0	287.786	1.00186e-18	1.91103e-28	1.04303e-28	0.77	0.23
2	342	2157	-0.00765916	0.00621253	0.0005	102146	18.1357	-0.54334	0	287.789	3.21978e-17	5.30553e-27	2.89574e-27	0.77	0.23
2	343	2182	-0.0076459	0.00700365	0.0005	102149	18.105	-0.479742	0	287.79	1.73024e-15	1.81603e-25	9.91179e-26	0.77	0.23
2	344	2182	-0.00763685	0.00778098	0.0005	102149	18.105	-0.479742	0	287.79	1.73024e-15	1.81603e-25	9.91179e-26	0.77	0.23
2	345	2207	-0.00763151	0.00854006	0.0005	102155	17.9871	-0.519037	0	287.793	1.18118e-13	7.01391e-24	3.82816e-24	0.77	0.23
2	346	2232	-0.00766698	0.00934258	0.0005	102158	17.7822	-0.345569	0	287.808	6.33259e-12	5.91882e-23	3.23047e-23	0.77	0.23
2	347	2258	-0.00867409	0.0101007	0.0005	102128	15.348	-0.226412	0	287.839	4.65869e-12	5.17789e-23	2.82607e-23	0.77	0.23
2	348	2273	-0.0239966	0.011	0.0005	101759	22.3692	-0.138514	0	288.24	3.78859e-28	7.74514e-38	4.22727e-38	0.77	0.23
2	349	2298	-0.0239966	0.018	0.0005	102717	23.1431	0.125117	0	287.787	3.41734e-29	7.55343e-39	4.12263e-39	0.77	0.23
2	350	2286	-0.0119229	0.0185813	0.0005	102662	23.314	0.124732	0	287.929	1.50548e-15	3.48052e-25	1.89966e-25	0.77	0.23
2	351	2308	-0.00812064	0.0190807	0.0005	102651	25.9049	0.102508	0	287.913	1.67216e-13	1.58003e-23	8.62374e-24	0.77	0.23
2	352	2307	-0.00781881	0.0195607	0.0005	102647	25.9997	0.099465	0	287.931	2.165e-12	6.18637e-23	3.3765e-23	0.77	0.23
2	353	2332	-0.0077394	0.0200494	0.0005	102646	26.1019	0.0651344	0	287.918	5.83134e-14	7.78181e-24	4.24728e-24	0.77	0.23
2	354	2332	-0.00775286	0.0205364	0.0005	102646	26.1019	0.0651344	0	287.918	5.83134e-14	7.78181e-24	4.24728e-24	0.77	0.23
2	355	2357	-0.00774485	0.0210202	0.0005	102644	26.1813	0.00279112	0	287.913	1.51506e-15	1.72174e-25	9.39718e-26	0.77	0.23
2	356	2357	-0.00773666	0.0215002	0.0005	102644	26.1813	0.00279112	0	287.913	1.51506e-15	1.72174e-25	9.39718e-26	0.77	0.23
2	357	2357	-0.00774492	0.021983	0.0005	102644	26.1813	0.00279112	0	287.913	1.51506e-15	1.72174e-25	9.39718e-26	0.77	0.23
2	358	2382	-0.00775277	0.022464	0.0005	102643	26.1006	-0.0686019	0	287.916	2.79634e-15	3.37101e-25	1.83989e-25	0.77	0.23
2	359	2382	-0.0077393	0.0229508	0.0005	102643	26.1006	-0.0686019	0	287.916	2.79634e-15	3.37101e-25	1.83989e-25	0.77	0.23
2	360	2407	-0.00781909	0.0234395	0.0005	102641	26.0018	-0.0962701	0	287.93	9.12854e-14	1.14157e-23	6.23065e-24	0.77	0.23
2	361	2408	-0.00812047	0.0239195	0.0005	102644	25.912	-0.111634	0	287.911	6.95201e-15	2.12433e-24	1.15945e-24	0.77	0.23
2	362	2436	-0.0119675	0.024422	0.0005	102657	23.2996	-0.126248	0	287.927	9.1557e-17	2.37254e-26	1.29492e-26	0.77	0.23
2	363	2448	-0.0239966	0.025	0.0005	102732	23.1514	-0.130185	0	287.792	2.3793e-30	5.11728e-40	2.79299e-40	0.77	0.23
2	372	2013	-0.0134923	0	0.0005	101948	19.5816	-0.0406168	0	287.732	2.96574e-33	6.02229e-43	3.28694e-43	0.77	0.23
2	373	2013	-0.0134904	0.000778741	0.0005	101948	19.5816	-0.0406168	0	287.732	2.96574e-33	6.02229e-43	3.28694e-43	0.77	0.23
2	374	2038	-0.0134896	0.00156978	0.0005	101950	19.5784	-0.00579253	0	287.733	1.96502e-31	3.9493e-41	2.15551e-41	0.77	0.23
2	375	2063	-0.0134891	0.00234346	0.0005	101952	19.5657	-0.0947213	0	287.732	1.4427e-29	2.96877e-39	1.62034e-39	0.77	0.23
2	376	2088	-0.0134886	0.00313421	0.0005	101955	19.561	-0.0617037	0	287.732	1.02735e-27	2.14068e-37	1.16837e-37	0.77	0.23
2	377	2088	-0.0134879	0.00391316	0.0005	101955	19.561	-0.0617037	0	287.732	1.02735e-27	2.14068e-37	1.16837e-37	0.77	0.23
2	378	2113	-0.0134857	0.00468862	0.0005	101958	19.5384	-0.158702	0	287.733	6.18984e-26	1.29351e-35	7.05995e-36	0.77	0.23