# vtk DataFile Version 2.0
sampleSurface
ASCII
DATASET POLYDATA
POINTS 16001 float
0 0 0.0005 0 0.001 0.0005 0.001 0 0.0005 -0.001 0
0.0005 0.001 0.001 0.0005 -0.001 0.001 0.0005 0.002 0 0.0005
0 0.002 0.0005 -0.002 0 0.0005 0.002 0.001 0.0005 0.001
0.002 0.0005 -0.002 0.001 0.0005 -0.001 0.002 0.0005 0.002 0.002
0.0005 -0.002 0.002 0.0005 0.003 0 0.0005 0 0.003 0.0005
-0.003 0 0.0005 0.003 0.001 0.0005 0.001 0.003 0.0005 -0.003
0.001 0.0005 -0.001 0.003 0.0005 0.003 0.002 0.0005 0.002 0.003
0.0005 -0.003 0.002 0.0005 -0.002 0.003 0.0005 0.004 0 0.0005
0 0.004 0.0005 -0.004 0 0.0005 0.004 0.001 0.0005 0.001
0.004 0.0005 -0.004 0.001 0.0005 -0.001 0.004 0.0005 0.003 0.003
0.0005 -0.003 0.003 0.0005 0.004 0.002 0.0005 0.002 0.004 0.0005
-0.004 0.002 0.0005 -0.002 0.004 0.0005 0.004 0.003 0.0005 0.003
0.004 0.0005 -0.004 0.003 0.0005 -0.003 0.004 0.0005 0.005 0
0.0005 0 0.005 0.0005 -0.005 0 0.0005 0.005 0.001 0.0005
0.001 0.005 0.0005 -0.005 0.001 0.0005 -0.001 0.005 0.0005 0.005
0.002 0.0005 0.002 0.005 0.0005 -0.005 0.002 0.0005 -0.002 0.005
0.0005 0.004 0.004 0.0005 -0.004 0.004 0.0005 0.005 0.003 0.0005
0.003 0.005 0.0005 -0.005 0.003 0.0005 -0.003 0.005 0.0005 0.006
0 0.0005 0 0.006 0.0005 -0.006 0 0.0005 0.006 0.001
0.0005 0.001 0.006 0.0005 -0.006 0.001 0.0005 -0.001 0.006 0.0005
0.006 0.002 0.0005 0.002 0.006 0.0005 -0.006 0.002 0.0005 -0.002
0.006 0.0005 0.005 0.004 0.0005 0.004 0.005 0.0005 -0.005 0.004
0.0005 -0.004 0.005 0.0005 0.006 0.003 0.0005 0.003 0.006 0.0005
-0.006 0.003 0.0005 -0.003 0.006 0.0005 0.007 0 0.0005 0
0.007 0.0005 -0.007 0 0.0005 0.007 0.001 0.0005 0.005 0.005
0.0005 0.001 0.007 0.0005 -0.007 0.001 0.0005 -0.005 0.005 0.0005
-0.001 0.007 0.0005 0.006 0.004 0.0005 0.004 0.006 0.0005 -0.006
0.004 0.0005 -0.004 0.006 0.0005 0.007 0.002 0.0005 0.002 0.007
0.0005 -0.007 0.002 0.0005 -0.002 0.007 0.0005 0.007 0.003 0.0005
0.003 0.007 0.0005 -0.007 0.003 0.0005 -0.003 0.007 0.0005 0.006
0.005 0.0005 0.005 0.006 0.0005 -0.006 0.005 0.0005 -0.005 0.006
0.0005 0.008 0 0.0005 0 0.008 0.0005 -0.008 0 0.0005
0.008 0.001 0.0005 0.001 0.008 0.0005 -0.008 0.001 0.0005 -0.001
0.008 0.0005 0.007 0.004 0.0005 0.004 0.007 0.0005 -0.007 0.004
0.0005 -0.004 0.007 0.0005 0.008 0.002 0.0005 0.002 0.008 0.0005
-0.008 0.002 0.0005 -0.002 0.008 0.0005 0.006 0.006 0.0005 -0.006
0.006 0.0005 0.008 0.003 0.0005 0.003 0.008 0.0005 -0.008 0.003
0.0005 -0.003 0.008 0.0005 0.007 0.005 0.0005 0.005 0.007 0.0005
-0.007 0.005 0.0005 -0.005 0.007 0.0005 0.008 0.004 0.0005 0.004
0.008 0.0005 -0.008 0.004 0.0005 -0.004 0.008 0.0005 0.009 0
0.0005 0 0.009 0.0005 -0.009 0 0.0005 0.009 0.001 0.0005
0.001 0.009 0.0005 -0.009 0.001 0.0005 -0.001 0.009 0.0005 0.009
0.002 0.0005 0.002 0.009 0.0005 -0.009 0.002 0.0005 -0.002 0.009
0.0005 0.007 0.006 0.0005 0.006 0.007 0.0005 -0.007 0.006 0.0005
-0.006 0.007 0.0005 0.008 0.005 0.0005 0.005 0.008 0.0005 -0.008
0.005 0.0005 -0.005 0.008 0.0005 0.009 0.003 0.0005 0.003 0.009
0.0005 -0.009 0.003 0.0005 -0.003 0.009 0.0005 0.009 0.004 0.0005
0.004 0.009 0.0005 -0.009 0.004 0.0005 -0.004 0.009 0.0005 0.007
0.007 0.0005 -0.007 0.007 0.0005 0.008 0.006 0.0005 0.006 0.008
0.0005 -0.008 0.006 0.0005 -0.006 0.008 0.0005 0.01 0 0.0005
0 0.01 0.0005 -0.01 0 0.0005 0.01 0.001 0.0005 0.001
0.01 0.0005 -0.01 0.001 0.0005 -0.001 0.01 0.0005 0.01 0.002
0.0005 0.002 0.01 0.0005 -0.01 0.002 0.0005 -0.002 0.01 0.0005
0.009 0.005 0.0005 0.005 0.009 0.0005 -0.009 0.005 0.0005 -0.005
0.009 0.0005 0.01 0.003 0.0005 0.003 0.01 0.0005 -0.01 0.003
0.0005 -0.003 0.01 0.0005 0.008 0.007 0.0005 0.007 0.008 0.0005
-0.008 0.007 0.0005 -0.007 0.008 0.0005 0.01 0.004 0.0005 0.004
0.01 0.0005 -0.01 0.004 0.0005 -0.004 0.01 0.0005 0.009 0.006
0.0005 0.006 0.009 0.0005 -0.009 0.006 0.0005 -0.006 0.009 0.0005
0.011 0 0.0005 0 0.011 0.0005 -0.011 0 0.0005 0.011
0.001 0.0005 0.001 0.011 0.0005 -0.011 0.001 0.0005 -0.001 0.011
0.0005 0.011 0.002 0.0005 0.002 0.011 0.0005 -0.011 0.002 0.0005
-0.002 0.011 0.0005 0.01 0.005 0.0005 0.005 0.01 0.0005 -0.01
0.005 0.0005 -0.005 0.01 0.0005 0.008 0.008 0.0005 -0.008 0.008
0.0005 0.011 0.003 0.0005 0.009 0.007 0.0005 0.007 0.009 0.0005
0.003 0.011 0.0005 -0.011 0.003 0.0005 -0.009 0.007 0.0005 -0.007
0.009 0.0005 -0.003 0.011 0.0005 0.01 0.006 0.0005 0.006 0.01
0.0005 -0.01 0.006 0.0005 -0.006 0.01 0.0005 0.011 0.004 0.0005
0.004 0.011 0.0005 -0.011 0.004 0.0005 -0.004 0.011 0.0005 0.012
0 0.0005 0 0.012 0.0005 -0.012 0 0.0005 0.012 0.001
0.0005 0.009 0.008 0.0005 0.008 0.009 0.0005 0.001 0.012 0.0005
-0.012 0.001 0.0005 -0.009 0.008 0.0005 -0.008 0.009 0.0005 -0.001
0.012 0.0005 0.011 0.005 0.0005 0.005 0.011 0.0005 -0.011 0.005
0.0005 -0.005 0.011 0.0005 0.012 0.002 0.0005 0.002 0.012 0.0005
-0.012 0.002 0.0005 -0.002 0.012 0.0005 0.01 0.007 0.0005 0.007
0.01 0.0005 -0.01 0.007 0.0005 -0.007 0.01 0.0005 0.012 0.003
0.0005 0.003 0.012 0.0005 -0.012 0.003 0.0005 -0.003 0.012 0.0005
0.011 0.006 0.0005 0.006 0.011 0.0005 -0.011 0.006 0.0005 -0.006
0.011 0.0005 0.012 0.004 0.0005 0.004 0.012 0.0005 -0.012 0.004
0.0005 -0.004 0.012 0.0005 0.009 0.009 0.0005 -0.009 0.009 0.0005
0.01 0.008 0.0005 0.008 0.01 0.0005 -0.01 0.008 0.0005 -0.008
0.01 0.0005 0.013 0 0.0005 0 0.013 0.0005 -0.013 0
0.0005 0.012 0.005 0.0005 0.005 0.012 0.0005 -0.012 0.005 0.0005
-0.005 0.012 0.0005 0.013 0.001 0.0005 0.011 0.007 0.0005 0.007
0.011 0.0005 0.001 0.013 0.0005 -0.013 0.001 0.0005 -0.011 0.007
0.0005 -0.007 0.011 0.0005 -0.001 0.013 0.0005 0.013 0.002 0.0005
0.002 0.013 0.0005 -0.013 0.002 0.0005 -0.002 0.013 0.0005 0.013
0.003 0.0005 0.003 0.013 0.0005 -0.013 0.003 0.0005 -0.003 0.013
0.0005 0.012 0.006 0.0005 0.006 0.012 0.0005 -0.012 0.006 0.0005
-0.006 0.012 0.0005 0.01 0.009 0.0005 0.009 0.01 0.0005 -0.01
0.009 0.0005 -0.009 0.01 0.0005 0.013 0.004 0.0005 0.011 0.008
0.0005 0.008 0.011 0.0005 0.004 0.013 0.0005 -0.013 0.004 0.0005
-0.011 0.008 0.0005 -0.008 0.011 0.0005 -0.004 0.013 0.0005 0.012
0.007 0.0005 0.007 0.012 0.0005 -0.012 0.007 0.0005 -0.007 0.012
0.0005 0.013 0.005 0.0005 0.005 0.013 0.0005 -0.013 0.005 0.0005
-0.005 0.013 0.0005 0.014 0 0.0005 0 0.014 0.0005 -0.014
0 0.0005 0.014 0.001 0.0005 0.001 0.014 0.0005 -0.014 0.001
0.0005 -0.001 0.014 0.0005 0.014 0.002 0.0005 0.01 0.01 0.0005
0.002 0.014 0.0005 -0.014 0.002 0.0005 -0.01 0.01 0.0005 -0.002
0.014 0.0005 0.011 0.009 0.0005 0.009 0.011 0.0005 -0.011 0.009
0.0005 -0.009 0.011 0.0005 0.013 0.006 0.0005 0.006 0.013 0.0005
-0.013 0.006 0.0005 -0.006 0.013 0.0005 0.014 0.003 0.0005 0.003
0.014 0.0005 -0.014 0.003 0.0005 -0.003 0.014 0.0005 0.012 0.008
0.0005 0.008 0.012 0.0005 -0.012 0.008 0.0005 -0.008 0.012 0.0005
0.014 0.004 0.0005 0.004 0.014 0.0005 -0.014 0.004 0.0005 -0.004
0.014 0.0005 0.013 0.007 0.0005 0.007 0.013 0.0005 -0.013 0.007
0.0005 -0.007 0.013 0.0005 0.011 0.01 0.0005 0.01 0.011 0.0005
-0.011 0.01 0.0005 -0.01 0.011 0.0005 0.014 0.005 0.0005 0.005
0.014 0.0005 -0.014 0.005 0.0005 -0.005 0.014 0.0005 0.015 0
0.0005 0.012 0.009 0.0005 0.009 0.012 0.0005 0 0.015 0.0005
-0.015 0 0.0005 -0.012 0.009 0.0005 -0.009 0.012 0.0005 0.015
0.001 0.0005 0.001 0.015 0.0005 -0.015 0.001 0.0005 -0.001 0.015
0.0005 0.015 0.002 0.0005 0.002 0.015 0.0005 -0.015 0.002 0.0005
-0.002 0.015 0.0005 0.014 0.006 0.0005 0.006 0.014 0.0005 -0.014
0.006 0.0005 -0.006 0.014 0.0005 0.013 0.008 0.0005 0.008 0.013
0.0005 -0.013 0.008 0.0005 -0.008 0.013 0.0005 0.015 0.003 0.0005
0.003 0.015 0.0005 -0.015 0.003 0.0005 -0.003 0.015 0.0005 0.015
0.004 0.0005 0.004 0.015 0.0005 -0.015 0.004 0.0005 -0.004 0.015
0.0005 0.011 0.011 0.0005 -0.011 0.011 0.0005 0.012 0.01 0.0005
0.01 0.012 0.0005 -0.012 0.01 0.0005 -0.01 0.012 0.0005 0.014
0.007 0.0005 0.007 0.014 0.0005 -0.014 0.007 0.0005 -0.007 0.014
0.0005 0.015 0.005 0.0005 0.013 0.009 0.0005 0.009 0.013 0.0005
0.005 0.015 0.0005 -0.015 0.005 0.0005 -0.013 0.009 0.0005 -0.009
0.013 0.0005 -0.005 0.015 0.0005 0.016 0 0.0005 0 0.016
0.0005 -0.016 0 0.0005 0.016 0.001 0.0005 0.001 0.016 0.0005
-0.016 0.001 0.0005 -0.001 0.016 0.0005 0.016 0.002 0.0005 0.002
0.016 0.0005 -0.016 0.002 0.0005 -0.002 0.016 0.0005 0.014 0.008
0.0005 0.008 0.014 0.0005 -0.014 0.008 0.0005 -0.008 0.014 0.0005
0.015 0.006 0.0005 0.006 0.015 0.0005 -0.015 0.006 0.0005 -0.006
0.015 0.0005 0.016 0.003 0.0005 0.012 0.011 0.0005 0.011 0.012
0.0005 0.003 0.016 0.0005 -0.016 0.003 0.0005 -0.012 0.011 0.0005
-0.011 0.012 0.0005 -0.003 0.016 0.0005 0.013 0.01 0.0005 0.01
0.013 0.0005 -0.013 0.01 0.0005 -0.01 0.013 0.0005 0.016 0.004
0.0005 0.004 0.016 0.0005 -0.016 0.004 0.0005 -0.004 0.016 0.0005
0.015 0.007 0.0005 0.007 0.015 0.0005 -0.015 0.007 0.0005 -0.007
0.015 0.0005 0.014 0.009 0.0005 0.009 0.014 0.0005 -0.014 0.009
0.0005 -0.009 0.014 0.0005 0.016 0.005 0.0005 0.005 0.016 0.0005
-0.016 0.005 0.0005 -0.005 0.016 0.0005 0.012 0.012 0.0005 -0.012
0.012 0.0005 0.015 0.008 0.0005 0.008 0.015 0.0005 -0.015 0.008
0.0005 -0.008 0.015 0.0005 0.017 0 0.0005 0 0.017 0.0005
-0.017 0 0.0005 0.013 0.011 0.0005 0.011 0.013 0.0005 -0.013
0.011 0.0005 -0.011 0.013 0.0005 0.017 0.001 0.0005 0.001 0.017
0.0005 -0.017 0.001 0.0005 -0.001 0.017 0.0005 0.016 0.006 0.0005
0.006 0.016 0.0005 -0.016 0.006 0.0005 -0.006 0.016 0.0005 0.017
0.002 0.0005 0.002 0.017 0.0005 -0.017 0.002 0.0005 -0.002 0.017
0.0005 0.014 0.01 0.0005 0.01 0.014 0.0005 -0.014 0.01 0.0005
-0.01 0.014 0.0005 0.017 0.003 0.0005 0.003 0.017 0.0005 -0.017
0.003 0.0005 -0.003 0.017 0.0005 0.016 0.007 0.0005 0.007 0.016
0.0005 -0.016 0.007 0.0005 -0.007 0.016 0.0005 0.017 0.004 0.0005
0.004 0.017 0.0005 -0.017 0.004 0.0005 -0.004 0.017 0.0005 0.015
0.009 0.0005 0.009 0.015 0.0005 -0.015 0.009 0.0005 -0.009 0.015
0.0005 0.013 0.012 0.0005 0.012 0.013 0.0005 -0.012 0.013 0.0005
-0.013 0.012 0.0005 0.017 0.005 0.0005 0.005 0.017 0.0005 -0.017
0.005 0.0005 -0.005 0.017 0.0005 0.014 0.011 0.0005 0.011 0.014
0.0005 -0.014 0.011 0.0005 -0.011 0.014 0.0005 0.016 0.008 0.0005
0.008 0.016 0.0005 -0.016 0.008 0.0005 -0.008 0.016 0.0005 0.018
[...]
POINT_DATA 16001
FIELD attributes 17
p 1 16001 float
110579 110578 110547 110612 110547 110612 110515 110582 110645 110517 110552
110646 110617 110525 110652 110483 110588 110680 110486 110560 110681
110623 110498 110536 110687 110660 110449 110604 110716 110454 110577
110716 110638 110509 110696 110469 110551 110719 110673 110480 110521
110726 110710 110413 110616 110757 110418 110590 110755 110650 110434
110562 110753 110684 110489 110740 110445 110523 110755 110723 110377
110635 110806 110381 110609 110801 110665 110396 110571 110793 110695
110451 110486 110768 110756 110405 110521 110789 110735 110342 110627
110868 110345 110443 110604 110861 110788 110663 110409 110478 110798
110774 110356 110568 110848 110694 110361 110505 110837 110739 110400
110431 110819 110813 110308 110632 110945 110309 110610 110937 110662
110365 110459 110840 110784 110315 110552 110919 110695 110389 110850
110319 110471 110903 110741 110359 110410 110860 110834 110326 110422
110900 110790 110270 110575 111035 110270 110568 111028 110635 110276
110522 111010 110678 110353 110370 110892 110880 110328 110379 110914
110848 110282 110406 110992 110736 110297 110361 110984 110789 110342
110927 110331 110351 110944 110902 110225 110520 111131 110227 110499
111126 110600 110239 110447 111112 110661 110309 110332 110992 110854
110254 110317 111098 110728 110326 110332 110978 110956 110279 110268
111091 110786 110318 110318 111015 110914 110174 110174 111223 110180
110261 111221 110608 110203 110300 111217 110674 110296 110265 111095
110855 110313 111008 110233 110316 110307 110212 111215 111043 110974
110732 110304 110277 111109 110919 110267 110173 111215 110790 110120
109951 111300 110131 110300 110288 110124 111304 111069 111029 110241
110287 110192 111219 110858 110166 110272 111314 110390 110297 110272
111126 110982 110209 110248 111328 110478 110288 110238 111225 110921
110252 110203 111342 110565 110278 111087 110284 110257 111142 111039
110071 110186 111362 110272 110198 111351 110642 110086 110280 110247
110230 111371 111230 110985 110282 110130 110317 111395 110397 110185
110294 111426 110492 110272 110226 111353 110742 110272 110249 111152
111097 110236 110259 110234 110229 111455 111231 111043 110577 110245
110231 111347 110872 110260 110210 111473 110658 110031 110218 111414
110048 110230 111426 110300 110098 110248 110278 111458 111157 110397
110276 110219 111229 111101 110259 110217 111476 110756 110162 110253
111501 110504 110219 110213 111334 111020 110219 110216 111540 110602
110213 110206 111465 110881 110274 110204 111226 111159 110252 110202
111567 110693 110005 110212 110190 110194 111471 111319 111150 110024
110198 111483 110282 110076 110226 111513 110392 110237 110195 111577
110790 110175 110174 111446 111021 110146 110212 111554 110512 110207
110199 111594 110628 110203 111225 110195 110164 111307 111220 110197
110171 111572 110902 110246 110150 110142 110188 111626 111423 111146
110731 109996 110138 111551 110015 110145 111557 110251 110067 110180
111575 110387 110142 110131 111557 111023 110236 110174 111647 110826
110137 110148 110146 110162 111600 111303 111209 110517 110123 110116
111407 111211 110198 110151 111628 110647 110207 110144 111657 110923
110135 110095 111539 111131 110241 110147 111657 110757 110110 111141
110157 110098 111661 111022 110004 109972 111665 110103 110083 111400
111201 110021 110018 111664 110216 110243 110134 111687 110851 110067
110058 111660 110378 110134 110062 111526 111188 110130 110056 111658
110511 110249 110104 111719 110936 110181 110084 111662 110651 110128
110052 111662 111110 110105 110065 111138 111079 110221 110106 111680
110764 110102 110040 111521 111181 110207 110062 111752 111018 110026
109877 111812 110039 110124 110022 109948 111802 111662 109884 111158
110205 110101 111714 110859 110074 109917 111776 109811 110121 109935
111745 109732 110147 110020 111782 111091 110082 111082 110216 110063
111766 110940 110161 110009 111722 109617 110098 110026 111082 111130
110096 109999 111662 111156 110182 110059 111722 109462 110184 110025
111830 111016 110134 109997 111804 111134 110153 110068 111753 109283
110051 109926 111971 110058 109938 111956 109860 110081 110072 110036
109907 111915 109799 111089 111089 110086 109997 111175 111120 110110
110125 109993 109939 111864 111891 109726 111083 110117 110035 111816
109104 110114 109980 111812 111136 110140 109999 111820 109611 110145
110033 111804 109454 110097 109995 111898 108954 110127 109972 111937
111124 110055 111107 110070 110021 111183 111098 110132 110032 111825
109272 110111 109992 111337 111113 110074 109869 112110 110075 109896
112095 109838 110087 109916 112053 109795 110103 109956 111982 108846
110100 109949 112000 109723 110098 110110 109970 110003 111883 111953
109093 111128 110122 109983 111952 109604 110071 110044 111203 111130
110114 109932 112044 108785 110081 110102 110022 109960 111966 108944
111342 111106 110132 110001 111927 109437 110108 109991 111523 111111
110136 109993 111935 109248 110081 109863 112200 110101 109913 112052
108838 110077 109882 112190 109840 110110 109921 112066 108762 110078
109904 112164 109804 110130 109964 111975 109066 110069 111229 110076
109941 112131 109728 110102 110043 111356 111149 110092 109968 112098
109597 110105 110009 111523 111110 110103 109883 112117 108779 110103
109919 112037 108918 110105 109979 112078 109417 110114 109946 108763
111688 110126 109968 112075 109218 110099 110093 110067 109870 112104
108817 111372 111250 110106 109876 112140 108758 110074 109865 112225
110067 109873 112226 109855 110111 110023 111524 111156 110060 109896
112228 109825 110111 109936 112089 109032 110044 110115 109988 109934
112229 108769 109744 111684 110055 109961 112229 109599 110100 109838
112154 108763 110075 110114 109898 109894 112115 108759 108887 111812
110062 109972 112226 109402 110083 111385 110105 110050 111524 111258
110095 110119 110015 109957 112218 108767 109191 111671 110102 109839
112171 108744 110081 109855 112144 108792 110048 109881 112204 110039
110118 109942 109876 112216 108766 109880 111805 110024 110081 109925
109894 112248 112206 109000 109853 109999 109936 112289 109767 110082
109832 112167 108742 110107 109855 108747 111895 109990 109968 112327
109610 110098 110048 111523 111389 110044 109887 112191 108858 110117
110044 108757 111654 109999 109986 112347 109397 110120 109993 108766
111784 110088 109834 112174 108726 109995 110067 109858 109974 112341
112177 108768 109174 110111 109885 108756 111888 110010 109913 112172
110002 109885 112191 109909 109991 109945 112309 108978 110069 111522
109983 110116 110043 109888 112243 108750 109877 111640 110067 109845
112165 108723 109961 110093 109845 109936 112311 108730 109787 111950
110120 110036 108758 111758 109948 109979 112374 109621 110016 109909
112257 108837 110115 109945 108759 111868 109969 110010 112412 109398
110076 109847 112159 108708 110041 109879 112203 108751 110100 109870
108739 111946 109955 110011 112409 109166 110114 110064 108762 111634
110123 110056 108753 111737 109957 110115 110008 109991 112366 108757
108967 111842 109966 109931 112156 109958 109896 112177 109930 110082
109849 108709 111988 110048 109864 112161 108709 109942 109891 112234
109890 109924 109942 112310 109798 110105 109922 108747 111931 110004
109955 112295 108826 109920 109995 112380 109627 110107 108801 110060
110126 110080 109861 112144 108767 108692 111728 109950 110039 112423
109400 110090 109859 108718 111987 110119 110044 108759 111821 110018
109915 112217 108742 109966 110054 112422 109165 110107 109982 108753
111913 110068 109858 108690 112014 109967 110046 112377 108964 109917
109943 110031 109882 112157 108700 109911 109927 109897 110096 109895
109941 108729 111982 109883 110127 110089 109989 108806 108855 110117
110074 108777 111812 109985 110012 112300 108823 109879 110040 110042
110113 110031 109859 112133 108764 108682 111899 110078 109861 108696
112016 109916 110083 109999 109960 112217 108739 110102 109948 108743
111975 109932 110101 110053 109843 108676 112036 110100 108858 110124
110081 108900 108816 109931 110088 109889 110096 108709 112018 110012
109899 112153 108697 109869 110000 109865 109995 110112 110074 108789
111893 109853 110012 109845 110049 109955 110108 110007 110063 108765
111969 109844 110086 110066 109842 108680 112039 110025 109843 112128
108678 109883 110096 109940 110117 108730 112020 109968 110000 110088
110084 108901 108865 109903 110127 110120 110096 108912 108829 110039
109804 108671 112050 110079 109868 108693 112045 110116 110067 108798
111966 109987 109914 109903 110120 109820 110073 110105 110001 108762
112022 109816 110068 109805 110076 109923 110084 109803 110095 110054
109793 108673 112053 110001 109825 109805 110048 110115 108902 110094
109917 108719 112052 110105 110113 108912 108873 110122 110105 108885
108841 109853 110131 109935 110017 110116 110060 108804 112022 110017
109756 109872 110131 110069 109816 108687 112059 109957 109920 110109
109978 108758 112058 109867 110115 109773 110095 110095 110138 108909
108904 109770 110131 110037 110155 110135 109724 108885 108882 109756
110124 109889 110075 109975 109812 109761 110089 109866 110124 108714
112067 110123 110102 108833 108850 109774 110128 109899 110126 110038
110007 108806 112059 109815 110131 110057 109737 109994 109718 109828
110123 110109 109930 108755 112074 110138 108904 110200 110148 108880
108906 109925 109911 110161 110137 108834 108890 109831 110098 110016
109660 109730 110142 110088 110188 108789 108856 110078 109787 109728
110179 109710 110162 109858 109946 109800 110050 109721 110148 110129
109996 108806 112075 109745 110139 109866 109979 109774 110039 109651
110132 110213 110174 108874 108901 109969 109694 110202 110166 108830
108909 110102 109860 109783 110117 110169 110129 108790 108894 109894
109885 109797 110085 110149 110057 108773 108856 109990 109617 110061
109689 109693 110198 109692 110191 109915 109780 109825 110029 109671
110124 109939 110177 110215 108868 109685 110216 110194 110164 108825
108900 110200 110163 108787 108911 109717 110155 110013 109585 109834
109950 109939 110085 109764 109676 109750 110147 110174 110116 108774
108895 109755 110131 109864 110147 110015 109855 110040 109605 109766
109962 109591 110095 110232 110224 108822 108866 110223 110199 108784
108899 110109 109853 109885 109754 109661 110168 109662 109795 110031
110167 110203 110159 108772 108910 109640 110168 109655 110171 110174
110084 109988 109546 109688 110175 110066 109669 109804 109943 109911
109657 109720 110176 110135 109943 110246 108820 109727 110240 110226
110163 108782 108864 109834 109839 110016 110227 110193 109547 108769
108897 109936 109576 109737 110125 110093 109761 110201 110130 109853
109735 109767 110056 109631 110112 110164 110020 109633 110119 109615
110140 109961 109526 110044 109598 109629 110167 109777 109881 109640
109958 109650 110252 110244 110193 108782 108819 110122 109863 110247
110216 108767 108862 109679 110209 110227 110170 109805 109845 109991
109517 109693 110202 110193 110072 109906 109564 110075 109686 109705
110164 109825 109733 110154 109957 110248 108782 109738 110089 110257
110232 108767 108817 110023 109554 109597 110059 109600 109932 109516
110071 110246 110197 109590 110106 109603 110107 109794 110151 109853
109634 109751 110218 110128 109983 109618 110195 109644 110222 110184
110028 109967 109504 110057 109632 109779 109861 109657 110220 109879
109558 110257 110240 108767 108779 110141 109901 110256 110226 109670
110181 109801 109741 110236 110172 110003 109534 109908 109511 109708
110101 110091 109735 109557 110209 110079 110046 109560 110058 109559
110091 109829 109636 109575 110136 109726 109990 109594 110172 109989
110179 109944 109500 110040 109603 109625 110250 110207 108764 110266
110241 109755 109866 109856 110238 110215 109554 110126 109847 109630
110203 110225 110140 109640 110160 109779 109744 109984 109529 110200
110049 110076 109697 109887 109506 109680 110078 109513 110086 109518
110092 109524 110161 109952 110107 109810 109635 110254 110251 109544
110129 110241 110239 109704 109968 109569 110152 110025 110221 110204
109594 109925 109497 109610 110164 110113 109805 110217 110106 109735
109839 109547 109850 109612 110150 110191 110038 109619 110103 109968
109532 109763 109734 110063 109681 110220 109872 109496 110223 110256
109662 110022 110206 110226 110150 109911 109469 110174 109797 109626
109474 110169 110220 110168 109486 110157 109688 109921 109506 110144
110013 109601 109914 109489 110214 110081 109549 110134 110103 109776
109573 110121 109830 109534 109721 109817 110183 110004 109574 110094
110187 110207 110193 110245 109959 109532 110055 109684 109752 109714
110210 110199 109610 110041 109866 109479 110141 109872 110224 110121
109648 109964 109790 109608 109433 110271 109438 110208 110048 110257
110004 109612 109458 110220 109678 109876 109907 110096 109766 109473
109483 110176 110182 109547 110195 110195 110137 109825 109514 110176
109955 110205 110226 109711 109787 109568 110103 110224 110170 109569
110048 109699 110063 109952 109526 110134 109844 109745 109694 110224
110095 109863 109459 109619 110009 110206 110013 109648 109937 109785
109590 110205 110174 109997 109620 110089 110204 110218 109770 109899
109456 109412 110342 109420 110323 109680 109857 109450 110221 110212
110277 109486 110220 110170 109919 109562 110228 110160 110169 109823
109496 109712 109777 109600 110126 110040 109714 109941 109516 110226
110084 110129 109829 109603 110082 109865 109444 109750 109687 110203
109639 110204 110200 110027 110202 109990 110217 110234 109990 109621
109662 109956 110081 110225 110211 109777 109790 109584 109905 109449
110167 109899 110234 110161 109411 110359 109421 110344 109690 109879
109462 110306 109508 110260 109828 109492 109584 110218 110224 110074
110034 109721 109717 109801 109946 109517 109617 110123 110206 110196
109821 110182 110222 110224 109621 110142 110219 110232 109868 110200
109975 109448 109753 109710 109655 110232 110221 110087 110073 109779
109986 109626 109675 110016 109792 109607 110235 110157 110162 109879
109909 109465 109706 109936 109431 110324 109443 110204 110317 110226
110194 110225 110068 109493 110301 110218 110230 109540 109831 109520
110283 110026 109726 110115 109817 109606 110266 109948 110226 110245
109541 109733 109855 109637 110247 110197 109962 110237 110220 109871
109486 109642 110217 109765 109763 110064 109783 109674 110166 110241
110159 109982 109649 110156 109872 110222 110194 109799 109665 110222
110198 109695 110095 109906 109515 110220 110233 110226 110057 109728
110012 109469 110251 109481 110230 110238 110254 110018 109743 109538
110264 110105 109823 109837 109588 109583 110279 109941 109597 110193
109959 109634 110291 109757 110246 110218 109927 109657 110294 109877
109565 110214 109660 110277 110245 110126 110226 110180 109789 109836
110054 109795 110224 110198 110147 109884 109976 109700 109692 110235
110224 110216 110226 110047 109912 109602 109819 109748 109713 110170
110241 110215 110094 109842 110010 109782 109748 110090 109518 110168
109530 110179 109852 109686 110254 110155 110186 109967 109591 110209
109945 109686 109636 110248 110222 110200 109776 110004 109670 110284
110234 110180 110250 110087 110227 110200 109679 110305 109886 109674
110045 109827 109681 110304 110135 110235 110193 109912 109805 109917
109976 109779 109711 110222 110038 110279 110253 110137 109919 109717
109835 109837 109733 110230 110083 110264 110078 109873 110207 110008
110235 110188 109847 110175 109990 109769 110162 110235 110197 109867
109787 109567 110100 109577 110113 109953 109795 109638 110151 110232
110204 109680 110250 110057 110202 109797 110083 109705 110248 110246
110143 109900 109785 109704 110281 110040 109880 110121 109940 109827
110000 109981 109873 109702 110266 110067 110296 110213 110035 109731
110225 110192 110292 109933 110242 110194 109829 109855 109926 110268
110011 110237 110209 109753 110266 110074 109917 110160 110013 110011
109923 110239 110181 109790 110221 109885 109882 109966 110243 110027
109898 109612 110261 110093 110072 109620 110082 109675 110115 109714
110160 109818 110157 109737 110204 110109 109970 110043 109940 109916
110276 109999 109883 110209 109733 110198 110054 110238 110238 110189
109994 109959 110244 110207 109848 110082 109728 110262 110237 110199
110266 109988 109753 109949 109925 110275 109877 110252 110131 110015
110070 109964 110144 110029 110022 109991 109775 110273 110230 110045
110275 110042 109906 109983 109983 109973 109812 110252 110225 110194
109651 110098 109654 110247 110193 110102 109700 110279 109980 110119
110099 110008 109732 109841 110209 110144 110050 110241 110210 109995
110179 110064 109759 109938 109972 110170 110244 110164 110013 110029
109760 110195 109873 110147 110255 110052 109751 110217 110267 110077
109972 110007 110072 110010 109775 110237 110130 110056 109900 110091
110038 110049 110283 110010 110211 110072 110211 109797 110247 110245
110188 110245 110197 110005 110054 109930 110055 110240 110188 109835
110242 110272 110054 110095 110053 109682 110181 110062 110256 110119
110044 109682 110161 110078 110177 109718 110169 109864 110217 109746
110165 109962 110050 109776 110035 110090 110163 110236 110103 110279
110040 109779 110168 109897 110174 109771 110177 110241 110205 110119
110104 110080 110053 110248 110185 109995 110281 110037 110078 110238
110188 110189 110091 109796 110188 109924 110058 110103 110133 110245
110157 109821 110195 110255 110104 110027 110114 109954 110106 110268
110081 109859 110097 110093 110192 110144 110103 110079 110093 109699
110297 109697 110281 110052 110283 110213 110132 109731 110250 109888
110176 109984 110103 110240 109757 110212 110056 110249 110203 110142
109782 110236 110178 110181 109789 110265 110069 110160 110234 110177
109921 110151 110115 110148 110093 110091 109789 110167 110099 110149
110015 110127 110255 110122 110077 110152 109817 109948 110127 110141
110231 110123 110274 110078 109845 110132 110044 110158 110105 110117
109976 110132 110166 110112 110245 110246 110270 110076 109884 110230
110194 110121 110096 110141 110188 110129 110222 110176 109706 110399
109707 110377 109914 110109 110001 110070 110236 110164 110185 110116
109744 110324 109768 110243 110077 110261 109784 110205 110115 110167
110260 110111 110148 110141 109945 110106 110132 110097 109796 110164
110026 110140 109807 110134 110089 110201 110204 110121 110266 110091
109969 110085 109837 110236 110109 110215 110234 110206 110181 110125
110219 109868 110049 110248 110082 110175 110083 110115 110138 110212
110179 109991 110079 110164 110125 110107 110199 110233 110159 109906
110062 110215 110086 110073 110211 110007 110248 110119 110087 109715
110438 109935 110049 109721 110414 109755 110353 110119 110173 109778
110281 110134 110208 110116 110189 109794 110216 110194 110213 109963
110242 110103 110043 110176 110101 110193 110193 109806 110167 110025
110115 110091 110191 110164 110246 109825 110130 110199 110171 109981
110040 110216 110091 109858 110097 110121 110216 110122 110174 110043
110163 110144 110209 110172 110168 109891 110064 109995 110109 110266
110037 110182 110092 110214 110136 109929 110038 110177 110067 110220
110190 110167 110004 110045 110123 110188 110152 110179 109956 110024
109726 110123 110231 109731 109760 110202 110137 110117 110269 109775
110179 110126 110156 110138 109802 109979 110021 110169 110157 109829
110017 110077 110090 110282 110177 110142 109845 110167 110165 109989
110021 110120 110205 109878 110124 110126 110202 110250 110034 110138
110167 110159 109908 110110 110156 110197 110157 110139 110331 109995
110202 110127 110018 110183 110099 109943 110149 110079 110157 110180
110063 110221 110117 110227 110125 110229 109999 110025 109967 110134
110172 109741 110118 110360 109743 110127 110118 109766 109774 109799
110139 110187 109985 110121 110133 110013 110093 110312 110057 109833
110194 110123 110221 109858 110217 110132 110113 110207 109990 110122