# vtk DataFile Version 2.0
sampleSurface
ASCII
DATASET POLYDATA
POINTS 16001 float
0 0 0.0005 0 0.001 0.0005 0.001 0 0.0005 -0.001 0
0.0005 0.001 0.001 0.0005 -0.001 0.001 0.0005 0.002 0 0.0005
0 0.002 0.0005 -0.002 0 0.0005 0.002 0.001 0.0005 0.001
0.002 0.0005 -0.002 0.001 0.0005 -0.001 0.002 0.0005 0.002 0.002
0.0005 -0.002 0.002 0.0005 0.003 0 0.0005 0 0.003 0.0005
-0.003 0 0.0005 0.003 0.001 0.0005 0.001 0.003 0.0005 -0.003
0.001 0.0005 -0.001 0.003 0.0005 0.003 0.002 0.0005 0.002 0.003
0.0005 -0.003 0.002 0.0005 -0.002 0.003 0.0005 0.004 0 0.0005
0 0.004 0.0005 -0.004 0 0.0005 0.004 0.001 0.0005 0.001
0.004 0.0005 -0.004 0.001 0.0005 -0.001 0.004 0.0005 0.003 0.003
0.0005 -0.003 0.003 0.0005 0.004 0.002 0.0005 0.002 0.004 0.0005
-0.004 0.002 0.0005 -0.002 0.004 0.0005 0.004 0.003 0.0005 0.003
0.004 0.0005 -0.004 0.003 0.0005 -0.003 0.004 0.0005 0.005 0
0.0005 0 0.005 0.0005 -0.005 0 0.0005 0.005 0.001 0.0005
0.001 0.005 0.0005 -0.005 0.001 0.0005 -0.001 0.005 0.0005 0.005
0.002 0.0005 0.002 0.005 0.0005 -0.005 0.002 0.0005 -0.002 0.005
0.0005 0.004 0.004 0.0005 -0.004 0.004 0.0005 0.005 0.003 0.0005
0.003 0.005 0.0005 -0.005 0.003 0.0005 -0.003 0.005 0.0005 0.006
0 0.0005 0 0.006 0.0005 -0.006 0 0.0005 0.006 0.001
0.0005 0.001 0.006 0.0005 -0.006 0.001 0.0005 -0.001 0.006 0.0005
0.006 0.002 0.0005 0.002 0.006 0.0005 -0.006 0.002 0.0005 -0.002
0.006 0.0005 0.005 0.004 0.0005 0.004 0.005 0.0005 -0.005 0.004
0.0005 -0.004 0.005 0.0005 0.006 0.003 0.0005 0.003 0.006 0.0005
-0.006 0.003 0.0005 -0.003 0.006 0.0005 0.007 0 0.0005 0
0.007 0.0005 -0.007 0 0.0005 0.007 0.001 0.0005 0.005 0.005
0.0005 0.001 0.007 0.0005 -0.007 0.001 0.0005 -0.005 0.005 0.0005
-0.001 0.007 0.0005 0.006 0.004 0.0005 0.004 0.006 0.0005 -0.006
0.004 0.0005 -0.004 0.006 0.0005 0.007 0.002 0.0005 0.002 0.007
0.0005 -0.007 0.002 0.0005 -0.002 0.007 0.0005 0.007 0.003 0.0005
0.003 0.007 0.0005 -0.007 0.003 0.0005 -0.003 0.007 0.0005 0.006
0.005 0.0005 0.005 0.006 0.0005 -0.006 0.005 0.0005 -0.005 0.006
0.0005 0.008 0 0.0005 0 0.008 0.0005 -0.008 0 0.0005
0.008 0.001 0.0005 0.001 0.008 0.0005 -0.008 0.001 0.0005 -0.001
0.008 0.0005 0.007 0.004 0.0005 0.004 0.007 0.0005 -0.007 0.004
0.0005 -0.004 0.007 0.0005 0.008 0.002 0.0005 0.002 0.008 0.0005
-0.008 0.002 0.0005 -0.002 0.008 0.0005 0.006 0.006 0.0005 -0.006
0.006 0.0005 0.008 0.003 0.0005 0.003 0.008 0.0005 -0.008 0.003
0.0005 -0.003 0.008 0.0005 0.007 0.005 0.0005 0.005 0.007 0.0005
-0.007 0.005 0.0005 -0.005 0.007 0.0005 0.008 0.004 0.0005 0.004
0.008 0.0005 -0.008 0.004 0.0005 -0.004 0.008 0.0005 0.009 0
0.0005 0 0.009 0.0005 -0.009 0 0.0005 0.009 0.001 0.0005
0.001 0.009 0.0005 -0.009 0.001 0.0005 -0.001 0.009 0.0005 0.009
0.002 0.0005 0.002 0.009 0.0005 -0.009 0.002 0.0005 -0.002 0.009
0.0005 0.007 0.006 0.0005 0.006 0.007 0.0005 -0.007 0.006 0.0005
-0.006 0.007 0.0005 0.008 0.005 0.0005 0.005 0.008 0.0005 -0.008
0.005 0.0005 -0.005 0.008 0.0005 0.009 0.003 0.0005 0.003 0.009
0.0005 -0.009 0.003 0.0005 -0.003 0.009 0.0005 0.009 0.004 0.0005
0.004 0.009 0.0005 -0.009 0.004 0.0005 -0.004 0.009 0.0005 0.007
0.007 0.0005 -0.007 0.007 0.0005 0.008 0.006 0.0005 0.006 0.008
0.0005 -0.008 0.006 0.0005 -0.006 0.008 0.0005 0.01 0 0.0005
0 0.01 0.0005 -0.01 0 0.0005 0.01 0.001 0.0005 0.001
0.01 0.0005 -0.01 0.001 0.0005 -0.001 0.01 0.0005 0.01 0.002
0.0005 0.002 0.01 0.0005 -0.01 0.002 0.0005 -0.002 0.01 0.0005
0.009 0.005 0.0005 0.005 0.009 0.0005 -0.009 0.005 0.0005 -0.005
0.009 0.0005 0.01 0.003 0.0005 0.003 0.01 0.0005 -0.01 0.003
0.0005 -0.003 0.01 0.0005 0.008 0.007 0.0005 0.007 0.008 0.0005
-0.008 0.007 0.0005 -0.007 0.008 0.0005 0.01 0.004 0.0005 0.004
0.01 0.0005 -0.01 0.004 0.0005 -0.004 0.01 0.0005 0.009 0.006
0.0005 0.006 0.009 0.0005 -0.009 0.006 0.0005 -0.006 0.009 0.0005
0.011 0 0.0005 0 0.011 0.0005 -0.011 0 0.0005 0.011
0.001 0.0005 0.001 0.011 0.0005 -0.011 0.001 0.0005 -0.001 0.011
0.0005 0.011 0.002 0.0005 0.002 0.011 0.0005 -0.011 0.002 0.0005
-0.002 0.011 0.0005 0.01 0.005 0.0005 0.005 0.01 0.0005 -0.01
0.005 0.0005 -0.005 0.01 0.0005 0.008 0.008 0.0005 -0.008 0.008
0.0005 0.011 0.003 0.0005 0.009 0.007 0.0005 0.007 0.009 0.0005
0.003 0.011 0.0005 -0.011 0.003 0.0005 -0.009 0.007 0.0005 -0.007
0.009 0.0005 -0.003 0.011 0.0005 0.01 0.006 0.0005 0.006 0.01
0.0005 -0.01 0.006 0.0005 -0.006 0.01 0.0005 0.011 0.004 0.0005
0.004 0.011 0.0005 -0.011 0.004 0.0005 -0.004 0.011 0.0005 0.012
0 0.0005 0 0.012 0.0005 -0.012 0 0.0005 0.012 0.001
0.0005 0.009 0.008 0.0005 0.008 0.009 0.0005 0.001 0.012 0.0005
-0.012 0.001 0.0005 -0.009 0.008 0.0005 -0.008 0.009 0.0005 -0.001
0.012 0.0005 0.011 0.005 0.0005 0.005 0.011 0.0005 -0.011 0.005
0.0005 -0.005 0.011 0.0005 0.012 0.002 0.0005 0.002 0.012 0.0005
-0.012 0.002 0.0005 -0.002 0.012 0.0005 0.01 0.007 0.0005 0.007
0.01 0.0005 -0.01 0.007 0.0005 -0.007 0.01 0.0005 0.012 0.003
0.0005 0.003 0.012 0.0005 -0.012 0.003 0.0005 -0.003 0.012 0.0005
0.011 0.006 0.0005 0.006 0.011 0.0005 -0.011 0.006 0.0005 -0.006
0.011 0.0005 0.012 0.004 0.0005 0.004 0.012 0.0005 -0.012 0.004
0.0005 -0.004 0.012 0.0005 0.009 0.009 0.0005 -0.009 0.009 0.0005
0.01 0.008 0.0005 0.008 0.01 0.0005 -0.01 0.008 0.0005 -0.008
0.01 0.0005 0.013 0 0.0005 0 0.013 0.0005 -0.013 0
0.0005 0.012 0.005 0.0005 0.005 0.012 0.0005 -0.012 0.005 0.0005
-0.005 0.012 0.0005 0.013 0.001 0.0005 0.011 0.007 0.0005 0.007
0.011 0.0005 0.001 0.013 0.0005 -0.013 0.001 0.0005 -0.011 0.007
0.0005 -0.007 0.011 0.0005 -0.001 0.013 0.0005 0.013 0.002 0.0005
0.002 0.013 0.0005 -0.013 0.002 0.0005 -0.002 0.013 0.0005 0.013
0.003 0.0005 0.003 0.013 0.0005 -0.013 0.003 0.0005 -0.003 0.013
0.0005 0.012 0.006 0.0005 0.006 0.012 0.0005 -0.012 0.006 0.0005
-0.006 0.012 0.0005 0.01 0.009 0.0005 0.009 0.01 0.0005 -0.01
0.009 0.0005 -0.009 0.01 0.0005 0.013 0.004 0.0005 0.011 0.008
0.0005 0.008 0.011 0.0005 0.004 0.013 0.0005 -0.013 0.004 0.0005
-0.011 0.008 0.0005 -0.008 0.011 0.0005 -0.004 0.013 0.0005 0.012
0.007 0.0005 0.007 0.012 0.0005 -0.012 0.007 0.0005 -0.007 0.012
0.0005 0.013 0.005 0.0005 0.005 0.013 0.0005 -0.013 0.005 0.0005
-0.005 0.013 0.0005 0.014 0 0.0005 0 0.014 0.0005 -0.014
0 0.0005 0.014 0.001 0.0005 0.001 0.014 0.0005 -0.014 0.001
0.0005 -0.001 0.014 0.0005 0.014 0.002 0.0005 0.01 0.01 0.0005
0.002 0.014 0.0005 -0.014 0.002 0.0005 -0.01 0.01 0.0005 -0.002
0.014 0.0005 0.011 0.009 0.0005 0.009 0.011 0.0005 -0.011 0.009
0.0005 -0.009 0.011 0.0005 0.013 0.006 0.0005 0.006 0.013 0.0005
-0.013 0.006 0.0005 -0.006 0.013 0.0005 0.014 0.003 0.0005 0.003
0.014 0.0005 -0.014 0.003 0.0005 -0.003 0.014 0.0005 0.012 0.008
0.0005 0.008 0.012 0.0005 -0.012 0.008 0.0005 -0.008 0.012 0.0005
0.014 0.004 0.0005 0.004 0.014 0.0005 -0.014 0.004 0.0005 -0.004
0.014 0.0005 0.013 0.007 0.0005 0.007 0.013 0.0005 -0.013 0.007
0.0005 -0.007 0.013 0.0005 0.011 0.01 0.0005 0.01 0.011 0.0005
-0.011 0.01 0.0005 -0.01 0.011 0.0005 0.014 0.005 0.0005 0.005
0.014 0.0005 -0.014 0.005 0.0005 -0.005 0.014 0.0005 0.015 0
0.0005 0.012 0.009 0.0005 0.009 0.012 0.0005 0 0.015 0.0005
-0.015 0 0.0005 -0.012 0.009 0.0005 -0.009 0.012 0.0005 0.015
0.001 0.0005 0.001 0.015 0.0005 -0.015 0.001 0.0005 -0.001 0.015
0.0005 0.015 0.002 0.0005 0.002 0.015 0.0005 -0.015 0.002 0.0005
-0.002 0.015 0.0005 0.014 0.006 0.0005 0.006 0.014 0.0005 -0.014
0.006 0.0005 -0.006 0.014 0.0005 0.013 0.008 0.0005 0.008 0.013
0.0005 -0.013 0.008 0.0005 -0.008 0.013 0.0005 0.015 0.003 0.0005
0.003 0.015 0.0005 -0.015 0.003 0.0005 -0.003 0.015 0.0005 0.015
0.004 0.0005 0.004 0.015 0.0005 -0.015 0.004 0.0005 -0.004 0.015
0.0005 0.011 0.011 0.0005 -0.011 0.011 0.0005 0.012 0.01 0.0005
0.01 0.012 0.0005 -0.012 0.01 0.0005 -0.01 0.012 0.0005 0.014
0.007 0.0005 0.007 0.014 0.0005 -0.014 0.007 0.0005 -0.007 0.014
0.0005 0.015 0.005 0.0005 0.013 0.009 0.0005 0.009 0.013 0.0005
0.005 0.015 0.0005 -0.015 0.005 0.0005 -0.013 0.009 0.0005 -0.009
0.013 0.0005 -0.005 0.015 0.0005 0.016 0 0.0005 0 0.016
0.0005 -0.016 0 0.0005 0.016 0.001 0.0005 0.001 0.016 0.0005
-0.016 0.001 0.0005 -0.001 0.016 0.0005 0.016 0.002 0.0005 0.002
0.016 0.0005 -0.016 0.002 0.0005 -0.002 0.016 0.0005 0.014 0.008
0.0005 0.008 0.014 0.0005 -0.014 0.008 0.0005 -0.008 0.014 0.0005
0.015 0.006 0.0005 0.006 0.015 0.0005 -0.015 0.006 0.0005 -0.006
0.015 0.0005 0.016 0.003 0.0005 0.012 0.011 0.0005 0.011 0.012
0.0005 0.003 0.016 0.0005 -0.016 0.003 0.0005 -0.012 0.011 0.0005
-0.011 0.012 0.0005 -0.003 0.016 0.0005 0.013 0.01 0.0005 0.01
0.013 0.0005 -0.013 0.01 0.0005 -0.01 0.013 0.0005 0.016 0.004
0.0005 0.004 0.016 0.0005 -0.016 0.004 0.0005 -0.004 0.016 0.0005
0.015 0.007 0.0005 0.007 0.015 0.0005 -0.015 0.007 0.0005 -0.007
0.015 0.0005 0.014 0.009 0.0005 0.009 0.014 0.0005 -0.014 0.009
0.0005 -0.009 0.014 0.0005 0.016 0.005 0.0005 0.005 0.016 0.0005
-0.016 0.005 0.0005 -0.005 0.016 0.0005 0.012 0.012 0.0005 -0.012
0.012 0.0005 0.015 0.008 0.0005 0.008 0.015 0.0005 -0.015 0.008
0.0005 -0.008 0.015 0.0005 0.017 0 0.0005 0 0.017 0.0005
-0.017 0 0.0005 0.013 0.011 0.0005 0.011 0.013 0.0005 -0.013
0.011 0.0005 -0.011 0.013 0.0005 0.017 0.001 0.0005 0.001 0.017
0.0005 -0.017 0.001 0.0005 -0.001 0.017 0.0005 0.016 0.006 0.0005
0.006 0.016 0.0005 -0.016 0.006 0.0005 -0.006 0.016 0.0005 0.017
0.002 0.0005 0.002 0.017 0.0005 -0.017 0.002 0.0005 -0.002 0.017
0.0005 0.014 0.01 0.0005 0.01 0.014 0.0005 -0.014 0.01 0.0005
-0.01 0.014 0.0005 0.017 0.003 0.0005 0.003 0.017 0.0005 -0.017
0.003 0.0005 -0.003 0.017 0.0005 0.016 0.007 0.0005 0.007 0.016
0.0005 -0.016 0.007 0.0005 -0.007 0.016 0.0005 0.017 0.004 0.0005
0.004 0.017 0.0005 -0.017 0.004 0.0005 -0.004 0.017 0.0005 0.015
0.009 0.0005 0.009 0.015 0.0005 -0.015 0.009 0.0005 -0.009 0.015
0.0005 0.013 0.012 0.0005 0.012 0.013 0.0005 -0.012 0.013 0.0005
-0.013 0.012 0.0005 0.017 0.005 0.0005 0.005 0.017 0.0005 -0.017
0.005 0.0005 -0.005 0.017 0.0005 0.014 0.011 0.0005 0.011 0.014
0.0005 -0.014 0.011 0.0005 -0.011 0.014 0.0005 0.016 0.008 0.0005
0.008 0.016 0.0005 -0.016 0.008 0.0005 -0.008 0.016 0.0005 0.018
[...]
POINT_DATA 16001
FIELD attributes 17
p 1 16001 float
103256 103254 103210 103303 103208 103302 103165 103250 103351 103164 103204
103350 103298 103159 103346 103122 103242 103400 103121 103196 103399
103291 103116 103152 103396 103340 103082 103232 103450 103080 103186
103448 103281 103108 103391 103075 103141 103446 103332 103066 103097
103441 103383 103043 103218 103498 103041 103171 103498 103268 103036
103127 103496 103320 103054 103435 103027 103083 103492 103374 103006
103201 103547 103005 103154 103546 103252 103000 103112 103545 103306
103014 103039 103487 103427 102990 103068 103542 103361 102973 103174
103594 102972 102996 103128 103594 103480 103228 102976 103020 103538
103417 102966 103091 103593 103286 102957 103047 103590 103347 102958
102973 103532 103473 102942 103140 103641 102941 103096 103641 103201
102943 102994 103587 103406 102936 103066 103640 103265 102932 103526
102927 103021 103638 103330 102925 102941 103583 103464 102914 102957
103635 103394 102914 103086 103686 102912 103042 103686 103163 102908
103025 103684 103238 102900 102897 103578 103520 102897 102893 103632
103456 102900 102978 103683 103312 102889 102900 103681 103382 102868
103574 102875 102846 103628 103514 102888 102992 103729 102886 102952
103728 103105 102883 102940 103728 103208 102874 102819 103679 103447
102876 102891 103726 103295 102847 102823 103625 103569 102867 102820
103725 103372 102855 102772 103676 103508 102864 102809 103770 102862
102806 103770 103072 102859 102813 103768 103195 102854 102731 103724
103441 102811 103621 102854 102831 102765 102766 103768 103673 103565
103287 102838 102688 103721 103504 102846 102733 103767 103368 102841
102502 103808 102840 102802 102767 102670 103808 103670 103618 102300
102835 102668 103765 103438 102838 102693 103808 102133 102816 102695
103719 103562 102833 102685 103807 101982 102820 102631 103764 103502
102826 102698 103806 101847 102767 103668 102794 102716 103717 103616
102820 102446 103844 102818 102663 103804 101718 102819 102798 102640
102574 103844 103762 103561 102274 102817 102612 103844 102122 102812
102643 103843 101978 102806 102628 103803 101596 102766 102731 103716
103667 102806 102780 102676 102669 103842 103761 103616 101844 102783
102630 103802 101479 102799 102655 103841 101717 102799 102362 103877
102798 102475 103877 102230 102796 102739 102543 103877 103714 102098
102759 102711 103760 103666 102787 102634 103840 101596 102792 102584
103876 101966 102760 102662 103802 101367 102786 102610 103876 101838
102764 102638 103840 101479 102739 102732 103759 103714 102776 102616
103875 101714 102780 102739 102696 102308 103908 103800 101260 102778
102406 103908 102198 102776 102482 103908 102077 102762 102619 103874
101594 102737 102658 103839 101367 102771 102530 103907 101954 102765
102561 103907 101832 102738 103758 102723 102720 103800 101158 102738
102632 103874 101478 102754 102711 102680 102578 103906 103838 101260
101710 102760 102278 103935 102760 102372 103935 102178 102757 102445
103935 102065 102708 102647 103873 101367 102737 102594 103906 101592
102752 102725 102728 102490 103935 103800 101062 101946 102693 102695
103838 101158 102744 102520 103934 101827 102710 102610 103905 101477
102680 102658 103873 101260 102732 102542 103934 101708 102716 100971
102676 102621 103904 101366 102743 102242 103960 102691 102696 103838
101062 102742 102346 103960 102170 102714 102563 103934 101590 102739
102412 103959 102061 102657 102660 103873 101158 102734 102445 103959
101943 102686 102583 103933 101476 102726 102476 103959 101826 102644
102627 103904 101260 102684 102684 100971 100886 102715 102505 103958
101706 102645 102654 103872 101062 102650 102595 103933 101366 102727
102294 103980 102726 102616 102624 102353 103980 103904 102314 101158
102698 102537 103958 101590 102724 102394 103980 102294 102718 102411
103980 102272 102618 102600 103933 101259 102660 100887 102672 102567
103958 101476 102712 102442 103980 102251 102641 102644 100808 100971
102602 102614 103904 101062 102702 102477 103980 102230 102640 102583
103958 101365 102593 102591 103933 101158 102687 102516 103980 102210
102712 102336 103998 102712 102366 103998 102315 102709 102634 102631
102392 103998 102294 100809 100887 102608 102606 100737 100971 102704
102611 102583 102411 103998 103958 102273 101259 102665 102550 103980
102189 102583 102578 103932 101062 102698 102439 103998 102252 102690
102471 103998 102230 102638 102568 103980 102170 102592 102568 103958
101158 102619 100809 102615 102600 100738 100887 102678 102502 103998
102210 102595 102570 100672 100971 102700 102340 104012 102699 102364
104012 102320 102696 102394 104012 102297 102616 102568 103980 102152
102692 102420 104012 102275 102663 102586 102551 102528 103998 103958
102190 101062 102687 102446 104012 102253 102612 102598 100738 100809
102603 102554 103980 102134 102645 102607 102566 102542 103998 102170
100673 100887 102680 102473 104013 102232 102596 102541 100615 100971
102671 102496 104013 102210 102688 102350 104024 102631 102545 103998
102152 102687 102374 104024 102326 102600 102537 103980 102118 102685
102400 104024 102302 102662 102515 104013 102190 102600 100738 102681
102424 104024 102278 102609 102573 100673 100809 102677 102448 104024
102255 102605 102538 100616 100886 102623 102538 103999 102135 102654
102527 104013 102170 102671 102472 104024 102233 102604 102528 102102
100565 102664 102494 104024 102212 102648 102604 102584 102531 104014
102152 100673 100738 102619 102528 103998 102118 102676 102356 104032
102676 102380 104032 102331 102606 102551 100616 100808 102674 102404
104032 102306 102658 102510 104024 102191 102671 102606 102525 102428
104032 102088 102282 100566 102667 102453 104032 102258 102643 102528
104014 102135 102653 102616 102521 102520 104024 102103 102171 100522
102662 102476 104032 102235 102594 100673 102603 102569 100616 100737
102655 102603 102534 102496 104032 102076 102213 100566 102636 102522
104013 102118 102653 102523 104025 102152 102666 102363 104036 102666
102609 102517 102386 104036 102089 102337 100523 102664 102650 102510
102408 104036 104033 102192 102311 102662 102433 104037 102285 102652
102520 104026 102135 102624 102514 102103 100487 102657 102459 104037
102260 102596 102582 100616 100672 102647 102517 104033 102172 102597
102547 102064 100566 102651 102483 104037 102236 102599 102518 102076
100523 102644 102513 104025 102118 102644 102648 102518 102502 104038
104034 102153 102214 102608 102506 102089 100488 102658 102377 104036
102657 102395 104036 102346 102637 102514 104038 102192 102584 100615
102656 102588 102554 102409 104036 102054 102316 100566 102646 102515
104034 102135 102653 102625 102504 102434 104036 102103 102288 100459
102588 102520 102065 100523 102648 102464 104036 102262 102633 102519
104038 102172 102592 102501 102076 100488 102640 102492 104037 102238
102637 102507 104034 102118 102633 102519 104039 102153 102604 102494
102089 100460 102631 102514 104038 102215 102577 102554 102045 100565
102576 102520 102055 100523 102622 102576 102495 102525 104038 102065
102193 100488 102650 102390 104035 102649 102406 104035 102352 102618
102496 102104 100438 102626 102514 104040 102135 102648 102414 104035
102319 102645 102436 104035 102290 102584 102482 102076 100460 102616
102526 104038 102173 102641 102465 104035 102263 102549 102038 102616
102563 102516 102504 104038 102046 102118 100522 102633 102493 104036
102238 102596 102482 102090 100439 102559 102489 102055 100488 102610
102522 104040 102154 102622 102513 104036 102215 102564 102470 102065
100460 102603 102490 102104 100425 102611 102524 104036 102194 102642
102416 102600 102514 104040 102136 102642 102416 102640 102576 102466
102422 102076 100439 102638 102536 102508 102438 102038 102031 102540
102481 102046 100487 102599 102524 104037 102173 102634 102459 102592
102542 102458 102502 104039 102055 102119 100460 102585 102473 102090
100426 102628 102480 102587 102519 104038 102154 102554 102449 102065
100439 102618 102496 102585 102485 102104 100421 102496 102032 102514
102470 102026 102038 102606 102568 102453 102506 102076 100425 102575
102510 104038 102136 102635 102420 102635 102420 102521 102446 102046
100459 102634 102424 102631 102436 102590 102531 102431 102510 102055
100439 102627 102451 102574 102465 102090 100422 102570 102496 104038
102119 102621 102548 102431 102468 102065 100425 102572 102507 102479
102458 102027 102032 102612 102482 102496 102431 102022 102038 102569
102477 102104 100422 102561 102441 102076 100422 102507 102412 102046
100438 102558 102499 102598 102491 102629 102419 102525 102408 102055
100426 102628 102418 102627 102421 102582 102495 102625 102430 102564
102454 102089 100423 102556 102484 102621 102444 102442 102027 102545
102415 102065 100422 102466 102417 102024 102032 102484 102394 102020
102038 102615 102454 102563 102492 102502 102384 102046 100425 102559
102464 102605 102466 102556 102427 102076 100423 102551 102484 102526
102387 102055 100422 102592 102473 102624 102432 102403 102414 102024
102027 102624 102413 102558 102457 102376 102439 102021 102032 102622
102416 102578 102476 102551 102469 102620 102546 102397 102422 102064
100423 102480 102361 102018 102038 102616 102431 102562 102507 102358
102474 102046 100421 102610 102440 102553 102410 102556 102448 102602
102448 102532 102364 102054 100423 102392 102024 102425 102360 102021
102027 102554 102465 102456 102339 102020 102032 102592 102454 102556
102422 102620 102489 102330 102404 102019 102038 102547 102376 102620
102404 102618 102407 102580 102554 102450 102455 102616 102412 102519
102330 102045 100422 102612 102417 102568 102452 102607 102553 102391
102423 102385 102347 102021 102024 102557 102429 102425 102320 102020
102027 102538 102340 102600 102428 102465 102304 102020 102032 102563
102443 102590 102431 102506 102296 102020 102038 102556 102403 102549
102356 102616 102394 102616 102394 102562 102428 102580 102431 102614
102532 102301 102396 102339 102021 102612 102384 102304 102398 102019
102024 102433 102281 102020 102027 102609 102402 102553 102372 102575
102427 102562 102543 102316 102408 102604 102404 102482 102264 102021
102031 102598 102405 102573 102524 102261 102418 102550 102336 102591
102558 102383 102406 102338 102294 102019 102021 102391 102263 102020
102024 102539 102273 102571 102404 102613 102381 102612 102585 102404
102381 102448 102236 102021 102026 102611 102382 102609 102383 102501
102223 102554 102352 102606 102383 102545 102293 102583 102399 102567
102385 102602 102382 102536 102227 102291 102020 102598 102344 102251
102381 102020 102021 102581 102390 102550 102404 102215 102316 102020
102022 102562 102362 102595 102378 102542 102245 102465 102189 102578
102378 102591 102375 102610 102366 102518 102182 102610 102366 102609
102366 102556 102332 102546 102271 102607 102365 102589 102572 102361
102370 102605 102295 102246 102362 102020 102020 102541 102194 102355
102202 102020 102020 102602 102359 102421 102163 102586 102362 102551
102296 102598 102356 102482 102142 102564 102339 102540 102220 102595
102352 102582 102351 102527 102142 102250 102020 102592 102348 102305
102198 102021 102018 102545 102251 102608 102351 102608 102558 102312
102350 102372 102148 102607 102349 102605 102538 102163 102346 102574
102336 102590 102439 102111 102342 102603 102342 102600 102337 102494
102094 102552 102277 102538 102199 102587 102335 102596 102332 102565
102317 102260 102203 102021 102019 102527 102106 102321 102143 102593
102328 102581 102325 102392 102092 102545 102235 102559 102293 102590
102323 102533 102140 102606 102454 102058 102336 102606 102335 102605
102332 102573 102313 102604 102328 102587 102318 102601 102500 102052
102323 102552 102262 102537 102184 102597 102215 102317 102020 102275
102150 102582 102312 102564 102342 102088 102297 102520 102080 102592
102312 102410 102036 102588 102307 102575 102304 102544 102223 102466
102010 102528 102127 102558 102277 102585 102303 102606 102321 102605
102320 102604 102498 102023 102317 102568 102294 102234 102166 102602
102312 102296 102096 102580 102299 102599 102306 102536 102363 102031
102177 102552 102251 102595 102300 102515 102067 102427 101985 102574
102562 102282 102294 102590 102294 102472 101977 102584 102290 102544
102218 102566 102289 102526 102124 102190 102556 102266 102256 102117
102581 102286 102320 102042 102497 102010 102605 102308 102561 102282
102604 102307 102386 101978 102604 102304 102575 102284 102602 102298
102536 102178 102550 102245 102442 101948 102599 102291 102514 102069
102594 102285 102558 102273 102566 102281 102477 101963 102590 102279
102218 102146 102283 102068 102544 102218 102526 102132 102560 102278
102346 101992 102584 102274 102554 102261 102500 102015 102408 101940
102580 102272 102557 102275 102605 102298 102604 102453 101932 102297
102537 102186 102604 102293 102572 102270 102550 102516 102083 102245
102602 102287 102179 102600 102248 102103 102280 102556 102270 102484
101970 102312 102022 102564 102270 102596 102273 102373 101954 102592
102528 102148 102266 102545 102225 102505 102036 102560 102271 102426
101922 102553 102262 102587 102262 102466 101939 102582 102259 102558
102271 102216 102143 102538 102200 102519 102281 102064 102108 102549
102251 102605 102292 102605 102290 102574 102259 102604 102342 101988
102286 102602 102280 102494 101994 102600 102398 101935 102272 102556
102270 102567 102262 102598 102264 102530 102170 102546 102238 102444
101927 102511 102068 102594 102258 102553 102267 102563 102266 102186
102589 102254 102111 102253 102479 101966 102314 102034 102540 102219
102584 102251 102522 102370 101969 102138 102561 102270 102550 102261
102502 102032 102421 101938 102606 102288 102606 102287 102577 102253
102605 102282 102604 102276 102558 102273 102601 102268 102462 101954
102533 102196 102571 102258 102547 102253 102598 102514 102229 102160
102105 102261 102292 102086 102594 102254 102347 102017 102554 102491
102007 102274 102567 102265 102590 102398 101970 102249 102525 102171
102542 102240 102585 102248 102564 102272 102442 101962 102508 102076
102551 102273 102580 102252 102606 102289 102606 102209 102287 102272
102140 102476 101996 102606 102282 102328 102072 102604 102560 102278
102276 102536 102223 102518 102145 102602 102269 102548 102378 102016
102269 102575 102259 102600 102262 102499 102055 102424 101990 102557
102283 102597 102255 102571 102268 102528 102204 102594 102251 102461
102002 102543 102262 102512 102121 102257 102194 102568 102278 102313
102129 102588 102251 102553 102286 102362 102070 102488 102045 102583
102256 102608 102292 102608 102407 102032 102290 102537 102250 102607
102286 102522 102183 102563 102286 102606 102280 102548 102286 102504
102104 102604 102274 102579 102445 102024 102264 102602 102266 102560
102293 102246 102600 102260 102475 102048 102302 102186 102575 102274
102531 102234 102350 102128 102515 102164 102544 102282 102597 102257
102393 102082 102495 102094 102555 102298 102571 102285 102593 102259
102432 102060 102526 102219 102539 102274 102588 102265 102610 102297
102609 102296 102566 102295 102464 102065 102508 102149 102609 102292
102550 102302 102608 102286 102295 102242 102584 102274 102608 102280
102342 102186 102486 102096 102384 102137 102606 102274 102563 102304
102534 102262 102604 102270 102520 102421 102104 102204 102580 102284
102545 102302 102601 102500 102141 102268 102454 102095 102558 102311
102574 102295 102598 102270 102530 102479 102109 102249 102293 102541
102338 102242 102296 102513 102191 102594 102276 102378 102193 102570
102305 102610 102303 102610 102302 102553 102316 102610 102298 102414
102154 102610 102495 102141 102294 102590 102286 102610 102289 102446
102133 102565 102314 102608 102285 102538 102286 102524 102238 102585
102296 102548 102319 102606 102473 102133 102282 102507 102183 102604
102338 102294 102281 102560 102376 102248 102322 102579 102307 102491
102151 102411 102206 102602 102284 102533 102275 102519 102228 102546
102317 102442 102177 102600 102290 102573 102316 102554 102503 102182
102328 102612 102469 102165 102309 102612 102308 102612 102305 102612
102302 102597 102299 102611 102298 102528 102264 102542 102310 102567
102489 102170 102324 102340 102610 102515 102221 102295 102377 102299
102551 102332 102410 102258 102591 102309 102608 102293 102440 102224
102502 102188 102607 102560 102331 102294 102584 102467 102202 102319
102537 102299 102524 102257 102549 102334 102606 102297 102512 102220
102488 102196 102578 102554 102337 102328 102604 102304 102379 102344
102614 102314 102614 102411 102306 102314 102613 102502 102202 102311
102532 102288 102612 102602 102312 102308 102546 102441 102271 102330
102521 102252 102612 102570 102334 102306 102468 102244 102550 102342
102611 102304 102597 102322 102512 102224 102610 102303 102489 102227
102562 102339 102540 102321 102609 102304 102527 102281 102590 102331
102549 102346 102504 102224 102520 102251 102383 102610 102308 102414
102349 102443 102315 102553 102343 102582 102338 102470 102285 102608
102315 102514 102234 102534 102311 102614 102318 102545 102493 102262
102345 102614 102525 102276 102318 102614 102316 102606 102324 102614
102313 102574 102343 102614 102550 102348 102311 102522 102254 102509
102250 102612 102310 102602 102333 102611 102310 102418 102388 102530
102303 102539 102339 102447 102356 102564 102518 102251 102345 102474
102325 102525 102276 102611 102312 102596 102547 102352 102342 102499
102299 102612 102317 102525 102262 102554 102346 102588 102348 102516
102280 102613 102533 102330 102324 102526 102298 102542 102354 102614
102321 102614 102524 102272 102321 102528 102278 102615 102320 102610
102333 102579 102352 102422 102615 102317 102548 102452 102393 102350
102615 102480 102363 102315 102614 102528 102276 102314 102506 102335
102607 102343 102528 102324 102536 102350 102613 102527 102297 102315
102569 102351 102526 102312 102544 102354 102614 102602 102351 102318
102532 102286 102536 102298 102615 102324 102558 102350 102529 102345
102595 102524 102319 102357 102456 102427 102536 102294 102617 102485
102398 102332 102537 102356 102530 102300 102513 102370 102615 102322
102615 102322 102616 102341 102586 102548 102537 102345 102350 102359
102615 102322 102615 102537 102297 102320 102615 102319 102523 102340
102550 102327 102524 102318 102613 102530 102356 102350 102614 102318
102575 102357 102614 102319 102540 102353 102536 102306 102550 102316
102609 102358 102616 102460 102322 102490 102431 102519 102403 102518
102336 102619 102562 102545 102313 102353 102328 102523 102354 102546
102377 102602 102363 102528 102319 102531 102356 102565 102356 102622
102336 102540 102316 102548 102351 102594 102569 102341 102364 102615
102322 102622 102346 102615 102322 102615 102322 102516 102352 102615
102322 102518 102334 102524 102357 102616 102320 102493 102463 102620
102561 102332 102354 102534 102324 102524 102434 102616 102319 102581
102362 102536 102553 102408 102352 102616 102320 102577 102386 102616
102361 102550 102329 102619 102324 102512 102349 102516 102358 102566
102357 102522 102588 102367 102336 102623 102330 102610 102526 102355
102365 102541 102332 102583 102354 102626 102338 102495 102550 102354
102526 102465 102601 102366 102510 102558 102438 102357 102627 102346
102614 102510 102347 102614 102615 102569 102346 102519 102357 102615
102586 102414 102529 102339 102616 102626 102355 102604 102394 102617
102588 102366 102535 102354 102553 102344 102618 102606 102378 102623
102362 102504 102356 102620 102512 102513 102348 102358 102571 102362
102594 102365 102625 102524 102540 102526 102496 102346 102356 102618
102558 102468 102365 102590 102443 102628 102615 102421 102575 102358
102553 102358 102500 102356 102505 102359 102608 102366 102631 102522
102351 102614 102517 102358 102614 102627 102402 102614 102614 102615
102556 102355 102631 102621 102386 102595 102537 102356 102366 102616
102525 102499 102360 102618 102557 102496 102504 102356 102629 102512