# vtk DataFile Version 2.0
sampleSurface
ASCII
DATASET POLYDATA
POINTS 16001 float
0 0 0.0005 0 0.001 0.0005 0.001 0 0.0005 -0.001 0
0.0005 0.001 0.001 0.0005 -0.001 0.001 0.0005 0.002 0 0.0005
0 0.002 0.0005 -0.002 0 0.0005 0.002 0.001 0.0005 0.001
0.002 0.0005 -0.002 0.001 0.0005 -0.001 0.002 0.0005 0.002 0.002
0.0005 -0.002 0.002 0.0005 0.003 0 0.0005 0 0.003 0.0005
-0.003 0 0.0005 0.003 0.001 0.0005 0.001 0.003 0.0005 -0.003
0.001 0.0005 -0.001 0.003 0.0005 0.003 0.002 0.0005 0.002 0.003
0.0005 -0.003 0.002 0.0005 -0.002 0.003 0.0005 0.004 0 0.0005
0 0.004 0.0005 -0.004 0 0.0005 0.004 0.001 0.0005 0.001
0.004 0.0005 -0.004 0.001 0.0005 -0.001 0.004 0.0005 0.003 0.003
0.0005 -0.003 0.003 0.0005 0.004 0.002 0.0005 0.002 0.004 0.0005
-0.004 0.002 0.0005 -0.002 0.004 0.0005 0.004 0.003 0.0005 0.003
0.004 0.0005 -0.004 0.003 0.0005 -0.003 0.004 0.0005 0.005 0
0.0005 0 0.005 0.0005 -0.005 0 0.0005 0.005 0.001 0.0005
0.001 0.005 0.0005 -0.005 0.001 0.0005 -0.001 0.005 0.0005 0.005
0.002 0.0005 0.002 0.005 0.0005 -0.005 0.002 0.0005 -0.002 0.005
0.0005 0.004 0.004 0.0005 -0.004 0.004 0.0005 0.005 0.003 0.0005
0.003 0.005 0.0005 -0.005 0.003 0.0005 -0.003 0.005 0.0005 0.006
0 0.0005 0 0.006 0.0005 -0.006 0 0.0005 0.006 0.001
0.0005 0.001 0.006 0.0005 -0.006 0.001 0.0005 -0.001 0.006 0.0005
0.006 0.002 0.0005 0.002 0.006 0.0005 -0.006 0.002 0.0005 -0.002
0.006 0.0005 0.005 0.004 0.0005 0.004 0.005 0.0005 -0.005 0.004
0.0005 -0.004 0.005 0.0005 0.006 0.003 0.0005 0.003 0.006 0.0005
-0.006 0.003 0.0005 -0.003 0.006 0.0005 0.007 0 0.0005 0
0.007 0.0005 -0.007 0 0.0005 0.007 0.001 0.0005 0.005 0.005
0.0005 0.001 0.007 0.0005 -0.007 0.001 0.0005 -0.005 0.005 0.0005
-0.001 0.007 0.0005 0.006 0.004 0.0005 0.004 0.006 0.0005 -0.006
0.004 0.0005 -0.004 0.006 0.0005 0.007 0.002 0.0005 0.002 0.007
0.0005 -0.007 0.002 0.0005 -0.002 0.007 0.0005 0.007 0.003 0.0005
0.003 0.007 0.0005 -0.007 0.003 0.0005 -0.003 0.007 0.0005 0.006
0.005 0.0005 0.005 0.006 0.0005 -0.006 0.005 0.0005 -0.005 0.006
0.0005 0.008 0 0.0005 0 0.008 0.0005 -0.008 0 0.0005
0.008 0.001 0.0005 0.001 0.008 0.0005 -0.008 0.001 0.0005 -0.001
0.008 0.0005 0.007 0.004 0.0005 0.004 0.007 0.0005 -0.007 0.004
0.0005 -0.004 0.007 0.0005 0.008 0.002 0.0005 0.002 0.008 0.0005
-0.008 0.002 0.0005 -0.002 0.008 0.0005 0.006 0.006 0.0005 -0.006
0.006 0.0005 0.008 0.003 0.0005 0.003 0.008 0.0005 -0.008 0.003
0.0005 -0.003 0.008 0.0005 0.007 0.005 0.0005 0.005 0.007 0.0005
-0.007 0.005 0.0005 -0.005 0.007 0.0005 0.008 0.004 0.0005 0.004
0.008 0.0005 -0.008 0.004 0.0005 -0.004 0.008 0.0005 0.009 0
0.0005 0 0.009 0.0005 -0.009 0 0.0005 0.009 0.001 0.0005
0.001 0.009 0.0005 -0.009 0.001 0.0005 -0.001 0.009 0.0005 0.009
0.002 0.0005 0.002 0.009 0.0005 -0.009 0.002 0.0005 -0.002 0.009
0.0005 0.007 0.006 0.0005 0.006 0.007 0.0005 -0.007 0.006 0.0005
-0.006 0.007 0.0005 0.008 0.005 0.0005 0.005 0.008 0.0005 -0.008
0.005 0.0005 -0.005 0.008 0.0005 0.009 0.003 0.0005 0.003 0.009
0.0005 -0.009 0.003 0.0005 -0.003 0.009 0.0005 0.009 0.004 0.0005
0.004 0.009 0.0005 -0.009 0.004 0.0005 -0.004 0.009 0.0005 0.007
0.007 0.0005 -0.007 0.007 0.0005 0.008 0.006 0.0005 0.006 0.008
0.0005 -0.008 0.006 0.0005 -0.006 0.008 0.0005 0.01 0 0.0005
0 0.01 0.0005 -0.01 0 0.0005 0.01 0.001 0.0005 0.001
0.01 0.0005 -0.01 0.001 0.0005 -0.001 0.01 0.0005 0.01 0.002
0.0005 0.002 0.01 0.0005 -0.01 0.002 0.0005 -0.002 0.01 0.0005
0.009 0.005 0.0005 0.005 0.009 0.0005 -0.009 0.005 0.0005 -0.005
0.009 0.0005 0.01 0.003 0.0005 0.003 0.01 0.0005 -0.01 0.003
0.0005 -0.003 0.01 0.0005 0.008 0.007 0.0005 0.007 0.008 0.0005
-0.008 0.007 0.0005 -0.007 0.008 0.0005 0.01 0.004 0.0005 0.004
0.01 0.0005 -0.01 0.004 0.0005 -0.004 0.01 0.0005 0.009 0.006
0.0005 0.006 0.009 0.0005 -0.009 0.006 0.0005 -0.006 0.009 0.0005
0.011 0 0.0005 0 0.011 0.0005 -0.011 0 0.0005 0.011
0.001 0.0005 0.001 0.011 0.0005 -0.011 0.001 0.0005 -0.001 0.011
0.0005 0.011 0.002 0.0005 0.002 0.011 0.0005 -0.011 0.002 0.0005
-0.002 0.011 0.0005 0.01 0.005 0.0005 0.005 0.01 0.0005 -0.01
0.005 0.0005 -0.005 0.01 0.0005 0.008 0.008 0.0005 -0.008 0.008
0.0005 0.011 0.003 0.0005 0.009 0.007 0.0005 0.007 0.009 0.0005
0.003 0.011 0.0005 -0.011 0.003 0.0005 -0.009 0.007 0.0005 -0.007
0.009 0.0005 -0.003 0.011 0.0005 0.01 0.006 0.0005 0.006 0.01
0.0005 -0.01 0.006 0.0005 -0.006 0.01 0.0005 0.011 0.004 0.0005
0.004 0.011 0.0005 -0.011 0.004 0.0005 -0.004 0.011 0.0005 0.012
0 0.0005 0 0.012 0.0005 -0.012 0 0.0005 0.012 0.001
0.0005 0.009 0.008 0.0005 0.008 0.009 0.0005 0.001 0.012 0.0005
-0.012 0.001 0.0005 -0.009 0.008 0.0005 -0.008 0.009 0.0005 -0.001
0.012 0.0005 0.011 0.005 0.0005 0.005 0.011 0.0005 -0.011 0.005
0.0005 -0.005 0.011 0.0005 0.012 0.002 0.0005 0.002 0.012 0.0005
-0.012 0.002 0.0005 -0.002 0.012 0.0005 0.01 0.007 0.0005 0.007
0.01 0.0005 -0.01 0.007 0.0005 -0.007 0.01 0.0005 0.012 0.003
0.0005 0.003 0.012 0.0005 -0.012 0.003 0.0005 -0.003 0.012 0.0005
0.011 0.006 0.0005 0.006 0.011 0.0005 -0.011 0.006 0.0005 -0.006
0.011 0.0005 0.012 0.004 0.0005 0.004 0.012 0.0005 -0.012 0.004
0.0005 -0.004 0.012 0.0005 0.009 0.009 0.0005 -0.009 0.009 0.0005
0.01 0.008 0.0005 0.008 0.01 0.0005 -0.01 0.008 0.0005 -0.008
0.01 0.0005 0.013 0 0.0005 0 0.013 0.0005 -0.013 0
0.0005 0.012 0.005 0.0005 0.005 0.012 0.0005 -0.012 0.005 0.0005
-0.005 0.012 0.0005 0.013 0.001 0.0005 0.011 0.007 0.0005 0.007
0.011 0.0005 0.001 0.013 0.0005 -0.013 0.001 0.0005 -0.011 0.007
0.0005 -0.007 0.011 0.0005 -0.001 0.013 0.0005 0.013 0.002 0.0005
0.002 0.013 0.0005 -0.013 0.002 0.0005 -0.002 0.013 0.0005 0.013
0.003 0.0005 0.003 0.013 0.0005 -0.013 0.003 0.0005 -0.003 0.013
0.0005 0.012 0.006 0.0005 0.006 0.012 0.0005 -0.012 0.006 0.0005
-0.006 0.012 0.0005 0.01 0.009 0.0005 0.009 0.01 0.0005 -0.01
0.009 0.0005 -0.009 0.01 0.0005 0.013 0.004 0.0005 0.011 0.008
0.0005 0.008 0.011 0.0005 0.004 0.013 0.0005 -0.013 0.004 0.0005
-0.011 0.008 0.0005 -0.008 0.011 0.0005 -0.004 0.013 0.0005 0.012
0.007 0.0005 0.007 0.012 0.0005 -0.012 0.007 0.0005 -0.007 0.012
0.0005 0.013 0.005 0.0005 0.005 0.013 0.0005 -0.013 0.005 0.0005
-0.005 0.013 0.0005 0.014 0 0.0005 0 0.014 0.0005 -0.014
0 0.0005 0.014 0.001 0.0005 0.001 0.014 0.0005 -0.014 0.001
0.0005 -0.001 0.014 0.0005 0.014 0.002 0.0005 0.01 0.01 0.0005
0.002 0.014 0.0005 -0.014 0.002 0.0005 -0.01 0.01 0.0005 -0.002
0.014 0.0005 0.011 0.009 0.0005 0.009 0.011 0.0005 -0.011 0.009
0.0005 -0.009 0.011 0.0005 0.013 0.006 0.0005 0.006 0.013 0.0005
-0.013 0.006 0.0005 -0.006 0.013 0.0005 0.014 0.003 0.0005 0.003
0.014 0.0005 -0.014 0.003 0.0005 -0.003 0.014 0.0005 0.012 0.008
0.0005 0.008 0.012 0.0005 -0.012 0.008 0.0005 -0.008 0.012 0.0005
0.014 0.004 0.0005 0.004 0.014 0.0005 -0.014 0.004 0.0005 -0.004
0.014 0.0005 0.013 0.007 0.0005 0.007 0.013 0.0005 -0.013 0.007
0.0005 -0.007 0.013 0.0005 0.011 0.01 0.0005 0.01 0.011 0.0005
-0.011 0.01 0.0005 -0.01 0.011 0.0005 0.014 0.005 0.0005 0.005
0.014 0.0005 -0.014 0.005 0.0005 -0.005 0.014 0.0005 0.015 0
0.0005 0.012 0.009 0.0005 0.009 0.012 0.0005 0 0.015 0.0005
-0.015 0 0.0005 -0.012 0.009 0.0005 -0.009 0.012 0.0005 0.015
0.001 0.0005 0.001 0.015 0.0005 -0.015 0.001 0.0005 -0.001 0.015
0.0005 0.015 0.002 0.0005 0.002 0.015 0.0005 -0.015 0.002 0.0005
-0.002 0.015 0.0005 0.014 0.006 0.0005 0.006 0.014 0.0005 -0.014
0.006 0.0005 -0.006 0.014 0.0005 0.013 0.008 0.0005 0.008 0.013
0.0005 -0.013 0.008 0.0005 -0.008 0.013 0.0005 0.015 0.003 0.0005
0.003 0.015 0.0005 -0.015 0.003 0.0005 -0.003 0.015 0.0005 0.015
0.004 0.0005 0.004 0.015 0.0005 -0.015 0.004 0.0005 -0.004 0.015
0.0005 0.011 0.011 0.0005 -0.011 0.011 0.0005 0.012 0.01 0.0005
0.01 0.012 0.0005 -0.012 0.01 0.0005 -0.01 0.012 0.0005 0.014
0.007 0.0005 0.007 0.014 0.0005 -0.014 0.007 0.0005 -0.007 0.014
0.0005 0.015 0.005 0.0005 0.013 0.009 0.0005 0.009 0.013 0.0005
0.005 0.015 0.0005 -0.015 0.005 0.0005 -0.013 0.009 0.0005 -0.009
0.013 0.0005 -0.005 0.015 0.0005 0.016 0 0.0005 0 0.016
0.0005 -0.016 0 0.0005 0.016 0.001 0.0005 0.001 0.016 0.0005
-0.016 0.001 0.0005 -0.001 0.016 0.0005 0.016 0.002 0.0005 0.002
0.016 0.0005 -0.016 0.002 0.0005 -0.002 0.016 0.0005 0.014 0.008
0.0005 0.008 0.014 0.0005 -0.014 0.008 0.0005 -0.008 0.014 0.0005
0.015 0.006 0.0005 0.006 0.015 0.0005 -0.015 0.006 0.0005 -0.006
0.015 0.0005 0.016 0.003 0.0005 0.012 0.011 0.0005 0.011 0.012
0.0005 0.003 0.016 0.0005 -0.016 0.003 0.0005 -0.012 0.011 0.0005
-0.011 0.012 0.0005 -0.003 0.016 0.0005 0.013 0.01 0.0005 0.01
0.013 0.0005 -0.013 0.01 0.0005 -0.01 0.013 0.0005 0.016 0.004
0.0005 0.004 0.016 0.0005 -0.016 0.004 0.0005 -0.004 0.016 0.0005
0.015 0.007 0.0005 0.007 0.015 0.0005 -0.015 0.007 0.0005 -0.007
0.015 0.0005 0.014 0.009 0.0005 0.009 0.014 0.0005 -0.014 0.009
0.0005 -0.009 0.014 0.0005 0.016 0.005 0.0005 0.005 0.016 0.0005
-0.016 0.005 0.0005 -0.005 0.016 0.0005 0.012 0.012 0.0005 -0.012
0.012 0.0005 0.015 0.008 0.0005 0.008 0.015 0.0005 -0.015 0.008
0.0005 -0.008 0.015 0.0005 0.017 0 0.0005 0 0.017 0.0005
-0.017 0 0.0005 0.013 0.011 0.0005 0.011 0.013 0.0005 -0.013
0.011 0.0005 -0.011 0.013 0.0005 0.017 0.001 0.0005 0.001 0.017
0.0005 -0.017 0.001 0.0005 -0.001 0.017 0.0005 0.016 0.006 0.0005
0.006 0.016 0.0005 -0.016 0.006 0.0005 -0.006 0.016 0.0005 0.017
0.002 0.0005 0.002 0.017 0.0005 -0.017 0.002 0.0005 -0.002 0.017
0.0005 0.014 0.01 0.0005 0.01 0.014 0.0005 -0.014 0.01 0.0005
-0.01 0.014 0.0005 0.017 0.003 0.0005 0.003 0.017 0.0005 -0.017
0.003 0.0005 -0.003 0.017 0.0005 0.016 0.007 0.0005 0.007 0.016
0.0005 -0.016 0.007 0.0005 -0.007 0.016 0.0005 0.017 0.004 0.0005
0.004 0.017 0.0005 -0.017 0.004 0.0005 -0.004 0.017 0.0005 0.015
0.009 0.0005 0.009 0.015 0.0005 -0.015 0.009 0.0005 -0.009 0.015
0.0005 0.013 0.012 0.0005 0.012 0.013 0.0005 -0.012 0.013 0.0005
-0.013 0.012 0.0005 0.017 0.005 0.0005 0.005 0.017 0.0005 -0.017
0.005 0.0005 -0.005 0.017 0.0005 0.014 0.011 0.0005 0.011 0.014
0.0005 -0.014 0.011 0.0005 -0.011 0.014 0.0005 0.016 0.008 0.0005
0.008 0.016 0.0005 -0.016 0.008 0.0005 -0.008 0.016 0.0005 0.018
[...]
POINT_DATA 16001
FIELD attributes 17
p 1 16001 float
101638 101640 101706 101566 101708 101568 101767 101648 101494 101770 101717
101495 101574 101778 101499 101820 101661 101422 101821 101731 101422
101585 101829 101791 101424 101507 101862 101682 101350 101863 101751
101350 101604 101841 101429 101871 101810 101350 101523 101883 101861
101353 101441 101897 101709 101278 101899 101778 101277 101629 101908
101835 101277 101545 101903 101362 101921 101886 101279 101460 101930
101744 101204 101932 101814 101204 101662 101942 101867 101205 101575
101941 101928 101286 101377 101956 101917 101207 101485 101964 101789
101129 101967 101967 101859 101129 101297 101701 101977 101961 101212
101398 101978 101910 101131 101609 101992 101961 101134 101512 102003
102000 101220 101312 102000 101849 101054 102002 101915 101055 101749
102015 102004 101139 101419 102013 101950 101058 101648 102037 101230
102028 102001 101062 101541 102042 102041 101144 101327 102050 102048
101066 101441 102037 101915 100979 102039 101984 100981 101800 102050
102010 100984 101685 102074 102075 101150 101240 102077 102085 101070
101342 102064 102064 100989 101569 102086 102112 100993 101460 102108
101156 102105 102117 101074 101250 102074 102029 100908 102076 102069
100909 101863 102085 102018 100912 101722 102109 102133 100996 101355
102097 102072 100917 101594 102129 102154 101076 101160 102116 102145
100921 101474 102134 102156 100998 101257 102108 102004 100840 102109
102088 100841 101905 102116 101996 100844 101745 102134 102171 100924
101363 102167 101077 102125 102153 102182 102013 100847 100998 101164
101608 102152 102186 100925 101262 102137 102147 100850 101482 102137
102311 100779 102137 102171 102186 102198 100779 100998 101078 102784
102149 102223 100852 101368 102142 102100 100780 103054 102163 102197
100924 101166 102147 102070 100781 103257 102159 102250 100853 101264
102154 102202 100783 103455 102177 100997 102171 102196 100923 101078
102158 102643 100722 102160 102289 100784 103631 102159 102158 102263
102484 100722 100853 101167 102873 102162 102338 100722 103091 102164
102271 100721 103278 102165 102319 100785 103800 102177 102200 100922
100996 102168 102166 102262 102325 100721 100853 101078 103465 102165
102326 100786 103954 102171 102367 100721 103636 102176 102796 100672
102176 102661 100671 102965 102178 102200 102539 100669 100921 103133
102177 102257 100852 100996 102173 102382 100721 103802 102179 102462
100667 103304 102168 102318 100786 104101 102181 102452 100665 103480
102168 102379 100723 103956 102190 102249 100852 100921 102183 102442
100664 103646 102190 102173 102301 102828 100625 100787 104243 102189
102706 100624 102992 102191 102623 100622 103154 102183 102434 100664
103808 102162 102366 100724 104103 102192 102563 100619 103323 102194
102535 100616 103495 102228 100851 102190 102288 100788 104381 102177
102418 100665 103960 102195 102169 102349 102499 100614 100727 104244
103659 102203 102883 100581 102202 102765 100581 103030 102204 102690
100579 103177 102167 102401 100668 104106 102196 102471 100613 103817
102206 102221 102267 102630 100576 100788 104517 103342 102193 102328
100728 104382 102211 102596 100572 103509 102196 102448 100614 103966
102177 102384 100670 104247 102214 102557 100570 103672 102251 104645
102198 102426 100616 104110 102214 102792 100540 102225 102303 100728
104517 102214 102715 100539 103044 102218 102516 100568 103826 102218
102684 100538 103185 102203 102361 100673 104384 102223 102659 100536
103347 102226 102483 100568 103973 102228 102633 100533 103515 102209
102407 100618 104250 102255 102286 104645 104764 102232 102595 100531
103677 102233 102335 100673 104518 102239 102460 100569 104114 102223
102677 100500 102225 102229 102384 102682 100500 100620 102784 104386
102238 102556 100529 103830 102232 102699 100499 102831 102240 102710
100499 102868 102252 102437 100571 104253 102288 104763 102251 102515
100528 103975 102246 102695 100497 102905 102265 102317 104867 104644
102254 102361 100621 104518 102250 102650 100496 102939 102274 102485
100528 104116 102264 102414 100573 104387 102253 102602 100494 102972
102233 102741 100463 102236 102721 100463 102786 102245 102297 102319
102725 100464 102830 104866 104760 102281 102348 104957 104642 102256
102289 102460 102728 100464 100529 102868 104254 102260 102556 100493
103003 102283 102394 100573 104518 102265 102712 100464 102905 102272
102672 100464 102939 102275 102514 100492 103031 102287 102439 100529
104388 102328 104863 102307 102352 104956 104757 102273 102623 100463
102972 102304 102383 105035 104640 102242 102761 100430 102245 102735
100431 102802 102254 102725 100432 102838 102288 102482 100492 103058
102265 102716 100433 102874 102273 102298 102423 102577 100463 100529
103003 104518 102274 102699 100435 102908 102333 102360 104954 104859
102299 102460 100492 103082 102273 102323 102385 102534 100461 103031
105035 104754 102280 102669 100436 102940 102327 102415 105108 104639
102281 102631 100436 102972 102251 102777 100402 102281 102498 100460
103058 102254 102752 100403 102810 102313 102445 100491 103105 102264
102737 100404 102843 102276 102591 100436 103002 102360 104951 102276
102722 100406 102877 102342 102390 105034 104856 102288 102702 100409
102910 102345 102413 105108 104753 102302 102477 100460 103082 102276
102554 100435 103031 102296 102673 100411 102941 102343 102440 103128
105177 102301 102638 100413 102972 102294 102368 102385 102521 100435
103058 105032 104948 102319 102466 100459 103106 102262 102783 100381
102265 102759 100382 102815 102360 102413 105108 104855 102274 102741
100383 102846 102291 102602 100414 103002 102288 102371 102439 102724
100386 103150 102879 105177 102302 102704 100388 102911 102315 102501
100434 103083 102296 102335 102461 102567 100414 103128 103030 105241
102304 102678 100391 102942 102389 105031 102376 102410 105107 104947
102299 102377 102439 102647 100394 103172 102972 105176 102328 102491
100433 103106 102322 102539 100414 103058 102277 102784 100367 102279
102359 102464 102761 100368 103151 102817 105241 102286 102290 102612
102747 100369 100396 103002 102848 102296 102729 100371 102881 102345
102519 100414 103083 102332 102484 103129 105296 102306 102709 100374
102913 102390 102408 105106 105030 102301 102578 100397 103030 102385
102434 103194 105175 102302 102684 100377 102944 102377 102464 103173
105239 102361 102508 100412 103107 102293 102320 102549 102653 100380
100398 103058 102973 102348 102485 103152 105296 102297 102781 100360
102298 102763 100360 102814 102284 102618 100383 103002 102407 105106
102301 102392 102428 102751 100361 103215 102847 105174 102340 102526
100398 103084 102305 102363 102501 102734 100364 103130 102880 105340
102387 102459 103195 105238 102311 102715 100366 102913 102280 102582
100385 103030 102375 102485 103174 105294 102310 102690 100369 102944
102364 102512 100397 103108 102306 102549 100386 103058 102372 102498
103153 105340 102306 102659 100372 102974 102408 102426 103234 105174
102396 102450 103216 105237 102309 102389 102483 102622 100375 103196
103002 105293 102317 102751 100358 102317 102749 100359 102819 102373
102505 103132 105370 102320 102523 100387 103084 102316 102750 100360
102851 102314 102740 100362 102882 102385 102498 103175 105339 102305
102582 100377 103030 102315 102723 100364 102915 102424 103251 102330
102408 102442 102506 100386 103235 103109 105236 102318 102698 100367
102945 102381 102501 103155 105371 102402 102473 103216 105291 102305
102542 100379 103058 102317 102667 100370 102974 102395 102495 103197
105338 102357 102498 103133 105389 102330 102628 100373 103003 102334
102733 102303 102510 100380 103084 102333 102740 102330 102389 102501
102744 103177 105372 102326 102420 102431 102738 103252 103267 102414
102458 103236 105290 102338 102583 100375 103030 102324 102724 102313
102409 102484 102488 100379 103218 103110 105337 102374 102496 103156
105390 102326 102702 102322 102537 100377 103058 102397 102499 103198
105372 102330 102672 102341 102479 103134 105398 102421 103268 102424
102440 103281 103253 102335 102386 102499 102634 103178 105393 102319
102495 100379 103084 102345 102746 102345 102747 102421 102472 103237
105336 102342 102745 102338 102737 102341 102407 102495 102587 103219
105373 102333 102724 102359 102480 103157 105401 102331 102466 100377
103110 102329 102395 102501 102705 103200 105396 102337 102537 102425
102426 103282 103268 102329 102677 102431 102456 103292 103254 102346
102453 103134 105400 102379 102491 103179 105405 102420 102494 103238
105373 102336 102489 102336 102639 102350 102746 102406 102507 103221
105399 102349 102746 102348 102744 102341 102591 102347 102737 102363
102457 103157 105403 102343 102453 102344 102430 102725 103282 102393
102504 103201 105410 102438 102445 103294 103269 102434 102486 103302
103255 102340 102707 102339 102536 102420 102518 103239 105399 102356
102435 102339 102681 102379 102476 103180 105408 102341 102483 102404
102522 103222 105414 102345 102644 102352 102446 102452 102753 103293
103282 102352 102752 102372 102449 102483 102440 103304 103270 102351
102748 102355 102596 102350 102443 102351 102390 102503 102741 103201
105414 102436 102523 103309 103256 102350 102730 102365 102419 102541
102540 103240 105415 102345 102714 102383 102465 102367 102424 102345
102690 102399 102535 103221 105419 102468 103292 102463 102492 103302
103282 102373 102484 102455 102531 103311 103270 102352 102656 102382
102429 102354 102436 102555 102751 103314 103257 102389 102503 102353
102750 102353 102747 102360 102377 102443 102611 102353 102741 102409
102565 103240 105420 102355 102733 102374 102559 102357 102391 102460
102719 102484 102504 103301 103292 102384 102424 102474 102540 103309
103282 102394 102548 102355 102699 102459 102572 103316 103271 102392
102506 102362 102671 102424 102590 103317 103256 102395 102433 102396
102508 102357 102753 102357 102752 102399 102467 102375 102633 102358
102400 102592 102749 102514 103300 102359 102493 102546 102745 103307
103291 102478 102584 103314 103282 102361 102738 102401 102468 102382
102589 102400 102396 102565 102450 102370 102727 102446 102613 103318
103270 102375 102710 102395 102412 102629 102546 102401 102522 102379
102404 102461 102687 102518 102551 103305 103299 102496 102589 103312
103291 102398 102619 102406 102513 102362 102751 102363 102388 102657
102750 102469 102628 103317 103281 102365 102749 102366 102745 102432
102657 102409 102497 102366 102739 102398 102585 102393 102624 102409
102500 102369 102730 102405 102664 102550 103304 102382 102519 102590
102717 103310 103298 102405 102591 102410 102492 102633 102551 103314
103289 102411 102511 102389 102698 102398 102645 102458 102673 102415
102567 102389 102675 102369 102751 102421 102696 102370 102751 102373
102749 102415 102544 102408 102612 102373 102746 102401 102416 102558
102650 102371 102547 102585 102741 103309 103304 102403 102693 102514
102632 103312 103297 102369 102733 102483 102678 102411 102626 102417
102592 102376 102721 102445 102714 102418 102569 102408 102671 102391
102706 102415 102610 102418 102727 102578 103308 102396 102688 102540
102624 103311 103302 102418 102647 102379 102751 102379 102422 102598
102751 102506 102674 102380 102749 102379 102412 102718 102745 102416
102606 102396 102470 102718 102668 102375 102740 102376 102732 102439
102745 102425 102638 102417 102698 102403 102651 102379 102722 102419
102617 102566 102612 103311 103306 102422 102749 102528 102662 102382
102709 102408 102641 102492 102711 102426 102682 102425 102641 102387
102694 102419 102738 102390 102459 102748 102753 102390 102752 102390
102749 102412 102640 102389 102745 102391 102679 102387 102436 102764
102739 102431 102673 102425 102722 102381 102594 102732 103309 102550
102644 102396 102666 102420 102512 102694 102650 102425 102763 102373
102723 102478 102738 102368 102711 102404 102659 102432 102707 102450
102765 102425 102754 102428 102669 102378 102699 102400 102754 102400
102753 102399 102433 102774 102749 102413 102660 102573 102620 102398
102743 102531 102671 102386 102687 102394 102737 102430 102495 102717
102738 102437 102695 102385 102730 102427 102772 102465 102753 102388
102424 102669 102678 102379 102721 102443 102773 102377 102711 102440
102721 102399 102674 102427 102761 102594 102433 102685 102550 102643
102381 102701 102511 102690 102431 102779 102409 102756 102411 102676
102409 102755 102479 102732 102407 102750 102379 102692 102407 102744
102434 102744 102437 102705 102454 102761 102403 102737 102426 102774
102398 102729 102423 102683 102381 102686 102438 102775 102395 102721
102567 102612 102526 102660 102438 102726 102430 102761 102395 102684
102492 102704 102395 102712 102433 102696 102428 102778 102466 102740
102387 102704 102410 102687 102418 102758 102417 102447 102763 102756
102436 102744 102415 102752 102377 102697 102435 102426 102771 102712
102412 102745 102581 102406 102540 102627 102737 102423 102694 102433
102773 102504 102672 102384 102693 102400 102728 102476 102712 102396
102431 102757 102719 102437 102729 102426 102773 102398 102692 102455
102743 102433 102705 102393 102711 102440 102762 102382 102704 102413
102695 102549 102592 102437 102743 102427 102513 102636 102765 102436
102717 102423 102761 102422 102759 102379 102699 102418 102483 102679
102754 102414 102747 102429 102770 102413 102461 102715 102738 102426
102702 102391 102696 102415 102728 102431 102753 102437 102731 102445
102743 102424 102768 102415 102719 102435 102711 102402 102696 102554
102403 102516 102597 102710 102433 102760 102485 102640 102435 102742
102394 102703 102426 102463 102681 102759 102415 102700 102439 102722
102425 102765 102446 102716 102427 102764 102426 102761 102398 102698
102424 102756 102422 102748 102426 102707 102424 102738 102434 102742
102430 102750 102405 102697 102437 102733 102427 102422 102515 102554
102763 102727 102483 102597 102425 102717 102458 102640 102433 102424
102756 102716 102412 102699 102418 102441 102680 102708 102425 102756
102435 102743 102412 102701 102417 102704 102429 102714 102420 102761
102441 102726 102412 102697 102432 102768 102431 102509 102765 102475
102549 102420 102739 102429 102758 102449 102593 102427 102421 102712
102749 102430 102750 102420 102759 102426 102738 102442 102431 102636
102736 102414 102697 102425 102727 102414 102753 102419 102677 102425
102721 102425 102716 102416 102701 102423 102755 102423 102707 102411
102711 102437 102745 102414 102759 102463 102500 102417 102707 102435
102542 102421 102701 102431 102731 102416 102587 102405 102736 102423
102699 102438 102773 102438 102404 102632 102770 102431 102752 102438
102761 102417 102759 102416 102716 102437 102751 102432 102741 102404
102751 102435 102739 102426 102396 102674 102700 102436 102727 102418
102726 102449 102437 102717 102391 102709 102418 102488 102425 102704
102422 102757 102397 102533 102408 102758 102429 102749 102438 102708
102385 102581 102391 102735 102421 102736 102423 102712 102439 102703
102377 102628 102412 102760 102425 102756 102439 102702 102448 102783
102449 102778 102419 102722 102374 102671 102395 102751 102448 102767
102423 102746 102446 102755 102400 102434 102439 102704 102443 102743
102376 102476 102374 102707 102363 102525 102442 102730 102414 102732
102416 102761 102446 102720 102400 102356 102576 102760 102435 102710
102421 102754 102448 102379 102735 102712 102354 102626 102414 102742
102429 102718 102445 102708 102405 102356 102670 102764 102380 102417
102354 102418 102761 102386 102753 102446 102708 102338 102465 102421
102728 102459 102795 102458 102790 102417 102752 102457 102777 102332
102518 102456 102361 102707 102762 102444 102711 102454 102749 102331
102573 102414 102738 102454 102737 102409 102766 102394 102763 102440
102717 102416 102760 102458 102335 102625 102727 102370 102736 102461
102330 102361 102720 102412 102312 102403 102748 102434 102725 102342
102671 102305 102455 102461 102716 102400 102768 102381 102756 102412
102766 102306 102514 102459 102716 102425 102735 102414 102353 102709
102757 102470 102312 102572 102807 102469 102802 102466 102789 102465
102774 102454 102719 102465 102760 102390 102767 102406 102770 102419
102321 102627 102744 102306 102468 102367 102739 102748 102285 102341
102415 102765 102277 102389 102448 102725 102472 102738 102278 102448
102334 102674 102474 102419 102754 102731 102441 102286 102511 102733
102400 102772 102379 102759 102414 102771 102476 102727 102351 102713
102298 102573 102433 102420 102763 102742 102472 102727 102256 102280
102476 102812 102475 102246 102320 102808 102472 102314 102630 102798
102392 102769 102469 102462 102730 102787 102410 102248 102376 102775
102367 102742 102467 102428 102751 102774 102258 102442 102422 102770
102469 102762 102456 102735 102333 102679 102471 102752 102273 102512
102430 102759 102405 102775 102476 102744 102382 102761 102451 102742
102422 102776 102292 102578 102353 102717 102223 102476 102740 102213
102252 102216 102300 102432 102767 102445 102749 102227 102366 102468
102739 102313 102636 102399 102771 102480 102812 102420 102245 102441
102778 102479 102372 102745 102809 102476 102805 102460 102741 102471
102798 102444 102757 102467 102430 102775 102789 102337 102685 102267
102517 102470 102778 102457 102745 102468 102767 102175 102188 102390
102763 102416 102777 102179 102225 102447 102291 102585 102765 102193
102286 102361 102722 102470 102759 102456 102429 102779 102751 102214
102363 102470 102754 102317 102645 102447 102772 102457 102757 102239
102447 102465 102410 102772 102752 102381 102748 102429 102781 102482
102810 102481 102266 102526 102809 102346 102692 102480 102808 102464
102752 102459 102763 102134 102478 102806 102442 102137 102155 102778
102475 102156 102205 102800 102474 102295 102597 102791 102180 102280
102462 102754 102402 102763 102426 102778 102468 102371 102726 102781
102464 102769 102209 102369 102439 102782 102460 102463 102758 102772
102327 102655 102239 102459 102457 102765 102467 102775 102422 102772
102467 102393 102750 102763 102093 102097 102270 102541 102458 102113
102132 102761 102439 102782 102357 102700 102143 102198 102485 102811
102485 102810 102464 102760 102474 102464 102176 102287 102779 102768
102484 102811 102484 102304 102611 102811 102482 102807 102415 102763
102209 102384 102384 102730 102469 102436 102778 102762 102475 102799
102478 102773 102462 102789 102458 102782 102338 102667 102243 102477
102472 102765 102449 102054 102779 102069 102071 102102 102123 102408
102750 102445 102487 102278 102559 102777 102772 102433 102771 102141
102206 102474 102768 102371 102707 102452 102781 102178 102305 102449
102767 102314 102627 102492 102780 102482 102214 102407 102773 102491
102812 102458 102765 102491 102812 102491 102812 102428 102760 102491
102813 102399 102733 102448 102776 102490 102809 102031 102029 102466
102251 102500 102766 102352 102679 102061 102063 102482 102802 102492
102776 102484 102105 102132 102780 102462 102791 102147 102227 102472
102769 102289 102580 102441 102782 102421 102748 102446 102768 102500
102778 102386 102185 102333 102713 102435 102774 102478 102473 102778
102772 102329 102644 102223 102435 102443 102769 102008 102501 102779
102027 102022 102488 102776 102444 102070 102073 102757 102455 102767
102499 102411 102734 102499 102500 102262 102527 102464 102774 102502
102117 102157 102368 102689 102498 102465 102768 102158 102261 102488
102502 102778 102496 102779 102303 102602 102467 102196 102368 102474
102770 102438 102745 102444 102460 102398 102718 102765 102512 102779
102236 102468 102437 102491 102345 102008 102003 102660 102776 102483
102042 102034 102773 102089 102101 102443 102135 102196 102276 102555
102512 102778 102429 102733 102459 102754 102492 102777 102455 102381
102699 102510 102486 102772 102511 102174 102302 102510 102511 102508
102319 102625 102467 102212 102407 102503 102513 102777 102779 102501
102006 102452 102743 102486 102027 102017 102413 102721 102478 102485