# vtk DataFile Version 2.0
sampleSurface
ASCII
DATASET POLYDATA
POINTS 16001 float
0 0 0.0005 0 0.001 0.0005 0.001 0 0.0005 -0.001 0
0.0005 0.001 0.001 0.0005 -0.001 0.001 0.0005 0.002 0 0.0005
0 0.002 0.0005 -0.002 0 0.0005 0.002 0.001 0.0005 0.001
0.002 0.0005 -0.002 0.001 0.0005 -0.001 0.002 0.0005 0.002 0.002
0.0005 -0.002 0.002 0.0005 0.003 0 0.0005 0 0.003 0.0005
-0.003 0 0.0005 0.003 0.001 0.0005 0.001 0.003 0.0005 -0.003
0.001 0.0005 -0.001 0.003 0.0005 0.003 0.002 0.0005 0.002 0.003
0.0005 -0.003 0.002 0.0005 -0.002 0.003 0.0005 0.004 0 0.0005
0 0.004 0.0005 -0.004 0 0.0005 0.004 0.001 0.0005 0.001
0.004 0.0005 -0.004 0.001 0.0005 -0.001 0.004 0.0005 0.003 0.003
0.0005 -0.003 0.003 0.0005 0.004 0.002 0.0005 0.002 0.004 0.0005
-0.004 0.002 0.0005 -0.002 0.004 0.0005 0.004 0.003 0.0005 0.003
0.004 0.0005 -0.004 0.003 0.0005 -0.003 0.004 0.0005 0.005 0
0.0005 0 0.005 0.0005 -0.005 0 0.0005 0.005 0.001 0.0005
0.001 0.005 0.0005 -0.005 0.001 0.0005 -0.001 0.005 0.0005 0.005
0.002 0.0005 0.002 0.005 0.0005 -0.005 0.002 0.0005 -0.002 0.005
0.0005 0.004 0.004 0.0005 -0.004 0.004 0.0005 0.005 0.003 0.0005
0.003 0.005 0.0005 -0.005 0.003 0.0005 -0.003 0.005 0.0005 0.006
0 0.0005 0 0.006 0.0005 -0.006 0 0.0005 0.006 0.001
0.0005 0.001 0.006 0.0005 -0.006 0.001 0.0005 -0.001 0.006 0.0005
0.006 0.002 0.0005 0.002 0.006 0.0005 -0.006 0.002 0.0005 -0.002
0.006 0.0005 0.005 0.004 0.0005 0.004 0.005 0.0005 -0.005 0.004
0.0005 -0.004 0.005 0.0005 0.006 0.003 0.0005 0.003 0.006 0.0005
-0.006 0.003 0.0005 -0.003 0.006 0.0005 0.007 0 0.0005 0
0.007 0.0005 -0.007 0 0.0005 0.007 0.001 0.0005 0.005 0.005
0.0005 0.001 0.007 0.0005 -0.007 0.001 0.0005 -0.005 0.005 0.0005
-0.001 0.007 0.0005 0.006 0.004 0.0005 0.004 0.006 0.0005 -0.006
0.004 0.0005 -0.004 0.006 0.0005 0.007 0.002 0.0005 0.002 0.007
0.0005 -0.007 0.002 0.0005 -0.002 0.007 0.0005 0.007 0.003 0.0005
0.003 0.007 0.0005 -0.007 0.003 0.0005 -0.003 0.007 0.0005 0.006
0.005 0.0005 0.005 0.006 0.0005 -0.006 0.005 0.0005 -0.005 0.006
0.0005 0.008 0 0.0005 0 0.008 0.0005 -0.008 0 0.0005
0.008 0.001 0.0005 0.001 0.008 0.0005 -0.008 0.001 0.0005 -0.001
0.008 0.0005 0.007 0.004 0.0005 0.004 0.007 0.0005 -0.007 0.004
0.0005 -0.004 0.007 0.0005 0.008 0.002 0.0005 0.002 0.008 0.0005
-0.008 0.002 0.0005 -0.002 0.008 0.0005 0.006 0.006 0.0005 -0.006
0.006 0.0005 0.008 0.003 0.0005 0.003 0.008 0.0005 -0.008 0.003
0.0005 -0.003 0.008 0.0005 0.007 0.005 0.0005 0.005 0.007 0.0005
-0.007 0.005 0.0005 -0.005 0.007 0.0005 0.008 0.004 0.0005 0.004
0.008 0.0005 -0.008 0.004 0.0005 -0.004 0.008 0.0005 0.009 0
0.0005 0 0.009 0.0005 -0.009 0 0.0005 0.009 0.001 0.0005
0.001 0.009 0.0005 -0.009 0.001 0.0005 -0.001 0.009 0.0005 0.009
0.002 0.0005 0.002 0.009 0.0005 -0.009 0.002 0.0005 -0.002 0.009
0.0005 0.007 0.006 0.0005 0.006 0.007 0.0005 -0.007 0.006 0.0005
-0.006 0.007 0.0005 0.008 0.005 0.0005 0.005 0.008 0.0005 -0.008
0.005 0.0005 -0.005 0.008 0.0005 0.009 0.003 0.0005 0.003 0.009
0.0005 -0.009 0.003 0.0005 -0.003 0.009 0.0005 0.009 0.004 0.0005
0.004 0.009 0.0005 -0.009 0.004 0.0005 -0.004 0.009 0.0005 0.007
0.007 0.0005 -0.007 0.007 0.0005 0.008 0.006 0.0005 0.006 0.008
0.0005 -0.008 0.006 0.0005 -0.006 0.008 0.0005 0.01 0 0.0005
0 0.01 0.0005 -0.01 0 0.0005 0.01 0.001 0.0005 0.001
0.01 0.0005 -0.01 0.001 0.0005 -0.001 0.01 0.0005 0.01 0.002
0.0005 0.002 0.01 0.0005 -0.01 0.002 0.0005 -0.002 0.01 0.0005
0.009 0.005 0.0005 0.005 0.009 0.0005 -0.009 0.005 0.0005 -0.005
0.009 0.0005 0.01 0.003 0.0005 0.003 0.01 0.0005 -0.01 0.003
0.0005 -0.003 0.01 0.0005 0.008 0.007 0.0005 0.007 0.008 0.0005
-0.008 0.007 0.0005 -0.007 0.008 0.0005 0.01 0.004 0.0005 0.004
0.01 0.0005 -0.01 0.004 0.0005 -0.004 0.01 0.0005 0.009 0.006
0.0005 0.006 0.009 0.0005 -0.009 0.006 0.0005 -0.006 0.009 0.0005
0.011 0 0.0005 0 0.011 0.0005 -0.011 0 0.0005 0.011
0.001 0.0005 0.001 0.011 0.0005 -0.011 0.001 0.0005 -0.001 0.011
0.0005 0.011 0.002 0.0005 0.002 0.011 0.0005 -0.011 0.002 0.0005
-0.002 0.011 0.0005 0.01 0.005 0.0005 0.005 0.01 0.0005 -0.01
0.005 0.0005 -0.005 0.01 0.0005 0.008 0.008 0.0005 -0.008 0.008
0.0005 0.011 0.003 0.0005 0.009 0.007 0.0005 0.007 0.009 0.0005
0.003 0.011 0.0005 -0.011 0.003 0.0005 -0.009 0.007 0.0005 -0.007
0.009 0.0005 -0.003 0.011 0.0005 0.01 0.006 0.0005 0.006 0.01
0.0005 -0.01 0.006 0.0005 -0.006 0.01 0.0005 0.011 0.004 0.0005
0.004 0.011 0.0005 -0.011 0.004 0.0005 -0.004 0.011 0.0005 0.012
0 0.0005 0 0.012 0.0005 -0.012 0 0.0005 0.012 0.001
0.0005 0.009 0.008 0.0005 0.008 0.009 0.0005 0.001 0.012 0.0005
-0.012 0.001 0.0005 -0.009 0.008 0.0005 -0.008 0.009 0.0005 -0.001
0.012 0.0005 0.011 0.005 0.0005 0.005 0.011 0.0005 -0.011 0.005
0.0005 -0.005 0.011 0.0005 0.012 0.002 0.0005 0.002 0.012 0.0005
-0.012 0.002 0.0005 -0.002 0.012 0.0005 0.01 0.007 0.0005 0.007
0.01 0.0005 -0.01 0.007 0.0005 -0.007 0.01 0.0005 0.012 0.003
0.0005 0.003 0.012 0.0005 -0.012 0.003 0.0005 -0.003 0.012 0.0005
0.011 0.006 0.0005 0.006 0.011 0.0005 -0.011 0.006 0.0005 -0.006
0.011 0.0005 0.012 0.004 0.0005 0.004 0.012 0.0005 -0.012 0.004
0.0005 -0.004 0.012 0.0005 0.009 0.009 0.0005 -0.009 0.009 0.0005
0.01 0.008 0.0005 0.008 0.01 0.0005 -0.01 0.008 0.0005 -0.008
0.01 0.0005 0.013 0 0.0005 0 0.013 0.0005 -0.013 0
0.0005 0.012 0.005 0.0005 0.005 0.012 0.0005 -0.012 0.005 0.0005
-0.005 0.012 0.0005 0.013 0.001 0.0005 0.011 0.007 0.0005 0.007
0.011 0.0005 0.001 0.013 0.0005 -0.013 0.001 0.0005 -0.011 0.007
0.0005 -0.007 0.011 0.0005 -0.001 0.013 0.0005 0.013 0.002 0.0005
0.002 0.013 0.0005 -0.013 0.002 0.0005 -0.002 0.013 0.0005 0.013
0.003 0.0005 0.003 0.013 0.0005 -0.013 0.003 0.0005 -0.003 0.013
0.0005 0.012 0.006 0.0005 0.006 0.012 0.0005 -0.012 0.006 0.0005
-0.006 0.012 0.0005 0.01 0.009 0.0005 0.009 0.01 0.0005 -0.01
0.009 0.0005 -0.009 0.01 0.0005 0.013 0.004 0.0005 0.011 0.008
0.0005 0.008 0.011 0.0005 0.004 0.013 0.0005 -0.013 0.004 0.0005
-0.011 0.008 0.0005 -0.008 0.011 0.0005 -0.004 0.013 0.0005 0.012
0.007 0.0005 0.007 0.012 0.0005 -0.012 0.007 0.0005 -0.007 0.012
0.0005 0.013 0.005 0.0005 0.005 0.013 0.0005 -0.013 0.005 0.0005
-0.005 0.013 0.0005 0.014 0 0.0005 0 0.014 0.0005 -0.014
0 0.0005 0.014 0.001 0.0005 0.001 0.014 0.0005 -0.014 0.001
0.0005 -0.001 0.014 0.0005 0.014 0.002 0.0005 0.01 0.01 0.0005
0.002 0.014 0.0005 -0.014 0.002 0.0005 -0.01 0.01 0.0005 -0.002
0.014 0.0005 0.011 0.009 0.0005 0.009 0.011 0.0005 -0.011 0.009
0.0005 -0.009 0.011 0.0005 0.013 0.006 0.0005 0.006 0.013 0.0005
-0.013 0.006 0.0005 -0.006 0.013 0.0005 0.014 0.003 0.0005 0.003
0.014 0.0005 -0.014 0.003 0.0005 -0.003 0.014 0.0005 0.012 0.008
0.0005 0.008 0.012 0.0005 -0.012 0.008 0.0005 -0.008 0.012 0.0005
0.014 0.004 0.0005 0.004 0.014 0.0005 -0.014 0.004 0.0005 -0.004
0.014 0.0005 0.013 0.007 0.0005 0.007 0.013 0.0005 -0.013 0.007
0.0005 -0.007 0.013 0.0005 0.011 0.01 0.0005 0.01 0.011 0.0005
-0.011 0.01 0.0005 -0.01 0.011 0.0005 0.014 0.005 0.0005 0.005
0.014 0.0005 -0.014 0.005 0.0005 -0.005 0.014 0.0005 0.015 0
0.0005 0.012 0.009 0.0005 0.009 0.012 0.0005 0 0.015 0.0005
-0.015 0 0.0005 -0.012 0.009 0.0005 -0.009 0.012 0.0005 0.015
0.001 0.0005 0.001 0.015 0.0005 -0.015 0.001 0.0005 -0.001 0.015
0.0005 0.015 0.002 0.0005 0.002 0.015 0.0005 -0.015 0.002 0.0005
-0.002 0.015 0.0005 0.014 0.006 0.0005 0.006 0.014 0.0005 -0.014
0.006 0.0005 -0.006 0.014 0.0005 0.013 0.008 0.0005 0.008 0.013
0.0005 -0.013 0.008 0.0005 -0.008 0.013 0.0005 0.015 0.003 0.0005
0.003 0.015 0.0005 -0.015 0.003 0.0005 -0.003 0.015 0.0005 0.015
0.004 0.0005 0.004 0.015 0.0005 -0.015 0.004 0.0005 -0.004 0.015
0.0005 0.011 0.011 0.0005 -0.011 0.011 0.0005 0.012 0.01 0.0005
0.01 0.012 0.0005 -0.012 0.01 0.0005 -0.01 0.012 0.0005 0.014
0.007 0.0005 0.007 0.014 0.0005 -0.014 0.007 0.0005 -0.007 0.014
0.0005 0.015 0.005 0.0005 0.013 0.009 0.0005 0.009 0.013 0.0005
0.005 0.015 0.0005 -0.015 0.005 0.0005 -0.013 0.009 0.0005 -0.009
0.013 0.0005 -0.005 0.015 0.0005 0.016 0 0.0005 0 0.016
0.0005 -0.016 0 0.0005 0.016 0.001 0.0005 0.001 0.016 0.0005
-0.016 0.001 0.0005 -0.001 0.016 0.0005 0.016 0.002 0.0005 0.002
0.016 0.0005 -0.016 0.002 0.0005 -0.002 0.016 0.0005 0.014 0.008
0.0005 0.008 0.014 0.0005 -0.014 0.008 0.0005 -0.008 0.014 0.0005
0.015 0.006 0.0005 0.006 0.015 0.0005 -0.015 0.006 0.0005 -0.006
0.015 0.0005 0.016 0.003 0.0005 0.012 0.011 0.0005 0.011 0.012
0.0005 0.003 0.016 0.0005 -0.016 0.003 0.0005 -0.012 0.011 0.0005
-0.011 0.012 0.0005 -0.003 0.016 0.0005 0.013 0.01 0.0005 0.01
0.013 0.0005 -0.013 0.01 0.0005 -0.01 0.013 0.0005 0.016 0.004
0.0005 0.004 0.016 0.0005 -0.016 0.004 0.0005 -0.004 0.016 0.0005
0.015 0.007 0.0005 0.007 0.015 0.0005 -0.015 0.007 0.0005 -0.007
0.015 0.0005 0.014 0.009 0.0005 0.009 0.014 0.0005 -0.014 0.009
0.0005 -0.009 0.014 0.0005 0.016 0.005 0.0005 0.005 0.016 0.0005
-0.016 0.005 0.0005 -0.005 0.016 0.0005 0.012 0.012 0.0005 -0.012
0.012 0.0005 0.015 0.008 0.0005 0.008 0.015 0.0005 -0.015 0.008
0.0005 -0.008 0.015 0.0005 0.017 0 0.0005 0 0.017 0.0005
-0.017 0 0.0005 0.013 0.011 0.0005 0.011 0.013 0.0005 -0.013
0.011 0.0005 -0.011 0.013 0.0005 0.017 0.001 0.0005 0.001 0.017
0.0005 -0.017 0.001 0.0005 -0.001 0.017 0.0005 0.016 0.006 0.0005
0.006 0.016 0.0005 -0.016 0.006 0.0005 -0.006 0.016 0.0005 0.017
0.002 0.0005 0.002 0.017 0.0005 -0.017 0.002 0.0005 -0.002 0.017
0.0005 0.014 0.01 0.0005 0.01 0.014 0.0005 -0.014 0.01 0.0005
-0.01 0.014 0.0005 0.017 0.003 0.0005 0.003 0.017 0.0005 -0.017
0.003 0.0005 -0.003 0.017 0.0005 0.016 0.007 0.0005 0.007 0.016
0.0005 -0.016 0.007 0.0005 -0.007 0.016 0.0005 0.017 0.004 0.0005
0.004 0.017 0.0005 -0.017 0.004 0.0005 -0.004 0.017 0.0005 0.015
0.009 0.0005 0.009 0.015 0.0005 -0.015 0.009 0.0005 -0.009 0.015
0.0005 0.013 0.012 0.0005 0.012 0.013 0.0005 -0.012 0.013 0.0005
-0.013 0.012 0.0005 0.017 0.005 0.0005 0.005 0.017 0.0005 -0.017
0.005 0.0005 -0.005 0.017 0.0005 0.014 0.011 0.0005 0.011 0.014
0.0005 -0.014 0.011 0.0005 -0.011 0.014 0.0005 0.016 0.008 0.0005
0.008 0.016 0.0005 -0.016 0.008 0.0005 -0.008 0.016 0.0005 0.018
[...]
POINT_DATA 16001
FIELD attributes 17
p 1 16001 float
113031 113026 113076 112984 113071 112979 113128 113012 112925 113122 113058
112921 112965 113110 112908 113190 112991 112852 113184 113039 112849
112941 113171 113092 112838 112885 113262 112961 112769 113256 113016
112767 112908 113153 112819 113242 113074 112760 112851 113223 113137
112746 112790 113336 112927 112688 113329 112990 112686 112868 113316
113056 112681 112810 113206 112723 113295 113124 112670 112753 113407
112884 112616 113401 112957 112614 112820 113390 113035 112608 112762
113277 113194 112653 112693 113369 113114 112598 112710 113471 112835
112560 113466 113262 112917 112557 112630 112769 113349 113192 112583
112658 113457 113009 112549 112712 113438 113102 112536 112665 113330
113261 112565 112604 113526 112775 112520 113522 112867 112516 112710
113418 113189 112520 112622 113518 112975 112504 112659 113324 112546
113505 113092 112487 112620 113395 113259 112503 112578 113490 113195
112468 112586 113564 112710 112493 113563 112805 112488 112654 113567
112930 112474 112610 113382 113318 112487 112528 113469 113270 112448
112552 113565 113065 112453 112578 113563 113174 112429 112554 113368
112474 113452 113323 112432 112512 113582 112619 112473 113585 112702
112467 112590 113603 112842 112451 112571 113550 113244 112406 112529
113620 113034 112428 112546 113430 113356 112420 112464 113639 113190
112402 112531 113535 113297 112386 112499 113574 112441 112454 113583
112548 112448 112546 113619 112727 112432 112551 113641 113275 112376
112513 113401 112412 113661 113507 113325 112975 112409 112371 112457
112529 113635 113312 112353 112490 113704 113194 112383 112521 113542
112680 112430 113560 113469 113359 112650 112425 112362 112408 112995
113722 113312 112357 112505 113618 112796 112411 112998 113608 113312
112335 112453 113686 113004 112391 112982 113727 113343 112333 112486
113754 113181 112368 112948 113422 112356 113575 113322 112322 112406
113492 112913 112399 113789 113267 112345 112923 113517 113707 113312
112872 112396 112314 112451 113001 113592 112954 112385 113008 113681
113092 112370 112990 113810 113313 112325 112918 113532 113374 112314
112354 113764 113687 113292 113215 112354 112299 112405 112951 113802
113306 112309 112926 113815 113265 112338 112924 113437 113005 112359
113465 112989 112357 113054 113546 113478 113027 112351 112309 113055
113650 113335 112288 112353 113854 113310 112326 112918 113644 113101
112344 113019 113805 113291 112295 112919 113736 113186 112337 112968
113868 113311 112315 112927 113589 113443 112281 112307 113797 113243
112332 112931 113390 113766 113331 113069 112310 112284 112873 113415
113044 112310 113104 113484 113054 112310 113097 113847 113294 112330
112920 113905 113312 112307 112919 113577 113092 112312 113050 113664
113145 112316 112985 113550 112279 113672 113426 112277 112768 113845
113309 112329 112927 113730 113868 113357 113203 112323 112300 112871
112936 113367 113114 112252 113381 113081 112255 113146 113425 113071
112261 113131 113909 113330 112329 112918 113755 113262 112333 112921
113496 113626 113522 113078 112272 112274 112609 113075 113738 113438
112296 112765 113569 113127 112288 112996 113734 113298 112344 112927
113898 113385 112330 112867 113650 113190 112307 112939 113605 112417
113713 113338 112354 112917 113377 113047 112189 113682 113527 112294
112605 113379 113053 112193 113186 113661 113250 112329 112920 113389
113077 112205 113160 113762 113467 112330 112757 113427 113097 112225
113090 113669 113294 112351 112926 113473 113124 112251 113004 113684
113397 112364 112862 113665 113615 112413 112222 113559 113170 112281
112940 113744 113547 112330 112594 113594 113343 112373 112915 113413
113073 112123 113404 113662 113476 113083 112129 112370 113298 112747
113588 113216 112313 112920 113386 113147 112145 113388 113379 113176
112171 113450 113539 113402 112390 112857 113673 112219 113618 113268
112346 112925 113382 113175 112204 113493 113734 113640 112049 112403
113718 113547 112371 112581 113433 113167 112242 113504 113585 113335
112376 112915 113578 113473 112402 112738 113479 113175 112283 113485
113461 113214 112057 113448 113183 112064 113310 113421 113732 113702
113213 112082 113391 112047 112211 113741 113632 111914 112389 113384
113553 113401 113231 112111 112401 113453 112855 113489 113220 112323
113438 113640 113535 112406 112570 113353 113215 112148 113493 113374
113177 112192 113503 113481 113302 112360 113373 113578 113465 112417
112735 113753 112043 113743 113698 111914 112200 113451 113168 112237
113483 113685 113615 111818 112378 113499 113259 111998 113492 113205
112004 113344 113477 113205 112022 113410 113519 113381 112390 113302
113440 113213 112052 113465 113463 113597 113520 113208 112282 112422
113435 112565 113397 113203 112090 113497 113760 113744 111912 112037
113572 113446 112409 113240 113469 113665 113684 113286 112322 113370
111819 112192 113408 113186 112134 113502 113600 113599 111756 112374
113497 113193 112180 113478 113505 113280 111945 113537 113358 112355
113301 113511 113220 111951 113358 113568 113497 112415 113193 113527
113189 111968 113423 113519 113236 112226 113428 113697 111911 113515
113177 111995 113473 113701 113740 111821 112033 113489 113183 112031
113499 113571 113667 111757 112189 113572 113415 112376 113239 113497
113299 112267 113363 113485 113199 112073 113498 113592 113567 113166
111719 113585 113230 112117 113469 113536 113709 113680 113349 112301
113295 111823 111911 113580 113461 112382 113195 113484 113272 111906
113504 113203 111911 113357 113650 113722 111761 112031 113560 113169
111926 113426 113571 113281 112162 113416 113595 113609 113634 113160
111950 113155 113476 111722 113600 113178 111982 113498 113562 113391
112322 113238 113490 113612 113527 113332 112201 113169 113352 111705
113570 113214 112019 113491 113737 111825 113728 113687 111766 111910
113647 113665 113696 113267 112060 113156 113457 111727 113588 113433
112328 113197 113528 113365 112234 113288 113457 113253 111877 113487
113641 113590 113182 111882 113159 113350 111708 113569 113583 113324
113154 111894 112100 113403 113425 113646 113153 111915 113475 113549
113392 112255 113236 113597 113491 113175 111712 113664 113185 111943
113493 113785 113752 111771 111826 113481 113368 112137 113340 113736
113695 113165 111734 113617 113239 111976 113481 113688 113653 113160
111714 113586 113423 112260 113202 113582 113535 113390 113304 112012
112167 113281 113444 113625 113543 113168 111715 113460 113211 111867
113491 113149 111871 113325 113509 113366 112048 113390 113823 111772
113572 113770 113753 113148 111882 113182 113414 111740 113540 113403
112186 113235 113665 113623 113465 113167 111900 113185 113467 111737
113765 113690 113169 111723 113701 113211 111925 113485 113497 113409
112081 113330 113693 113595 113171 111721 113673 113272 111954 113471
113580 113419 112191 113206 113539 113427 112108 113275 113663 113503
113181 111740 113607 113338 111987 113433 113821 113795 113210 111742
113814 113739 113186 111730 113553 113745 113643 113396 112019 113180
113380 111729 113514 113117 111872 113534 113095 111875 113313 113614
113443 113195 111772 113541 113430 112125 113234 113589 113144 111885
113411 113657 113197 111902 113464 113711 113543 113185 111745 113557
113436 112049 113323 113707 113256 111926 113483 113808 113257 113576
113840 113751 113433 112129 113214 113211 111732 113705 113315 111954
113467 113653 113468 113196 111774 113786 113709 113195 111736 113556
113453 112073 113271 113682 113368 111984 113429 113754 113582 113194
111752 113603 113444 113205 111808 113631 113410 112015 113377 113601
113115 113555 113457 112089 113233 113602 113144 113605 113686 113497
113199 113202 111777 113623 113842 113780 113257 113260 113328 113807
113768 113222 111738 113593 113441 112043 113320 113654 113314 113574
113787 113660 113459 112092 113208 113214 111757 113637 113462 113208
111809 113672 113361 113581 113461 112067 113270 113715 113523 113210
111781 113657 113396 113592 113468 113211 111827 113835 113331 113817
113810 113424 113267 113615 113659 113487 113421 113216 111809 113571
113473 112081 113233 113683 113260 113657 113272 113817 113751 113233
111759 113602 113302 113575 113340 113593 113746 113607 113441 113222
111784 113604 113376 113612 113484 113217 111827 113581 113484 112084
113215 113644 113685 113517 113402 113224 111810 113585 113460 113833
113851 113427 113336 113639 113418 113830 113810 113541 113276 113587
113501 113213 111827 113623 113504 113225 111826 113785 113719 113245
111785 113580 113478 113605 113427 113722 113391 113715 113592 113235
111811 113677 113397 113578 113412 113589 113437 113531 113428 113596
113525 113220 111827 113582 113499 113576 113860 113438 113430 113644
113534 113233 111824 113850 113863 113543 113343 113817 113795 113660
113285 113642 113437 113584 113453 113750 113696 113255 111810 113579
113527 113637 113430 113605 113548 113228 111825 113581 113473 113679
113589 113243 111822 113594 113421 113707 113886 113885 113564 113544
113435 113654 113559 113580 113859 113860 113563 113662 113350 113548
113547 113581 113420 113579 113500 113519 113620 113571 113528 113236
111822 113796 113774 113767 113294 113573 113499 113573 113717 113670
113430 113262 111821 113648 113465 113586 113592 113570 113536 113635
113429 113644 113604 113245 111820 113908 113546 113901 113890 113661
113441 113567 113449 113852 113835 113768 113357 113581 113402 113565
113578 113649 113766 113746 113723 113832 113299 113594 113611 113606
113709 113534 113672 113574 113564 113478 113390 113534 113615 113669
113660 113263 111818 113570 113548 113561 113394 113614 113561 113614
113478 113908 113908 113660 113549 113559 113515 113880 113864 113764
113445 113609 113625 113594 113419 113831 113801 113832 113361 113552
113411 113560 113376 113713 113722 113848 113300 113556 113560 113564
113636 113573 113879 113550 113855 113546 113438 113568 113355 113533
113624 113655 113790 113898 113660 113547 113877 113879 113696 113760
113552 113867 113829 113827 113449 113551 113591 113552 113603 113552
113354 113546 113579 113644 113473 113525 113493 113794 113774 113848
113361 113510 113414 113540 113669 113698 113366 113551 113637 113536
113550 113517 113360 113875 113877 113757 113661 113871 113845 113821
113555 113596 113658 113534 113389 113515 113996 113518 113551 113331
113965 113840 113796 113842 113448 113548 113880 113570 113760 113754
113740 113547 113563 113550 113631 113559 113655 113542 113323 113539
113418 113493 113515 113642 113680 113874 113756 113478 113875 113849
113423 113814 113662 113529 113327 113544 113859 113805 113610 113835
113554 113544 113458 113519 113359 113575 113671 113812 113758 113523
113342 113534 113320 113489 114073 113718 113709 113515 114039 113569
113947 113545 113503 113543 113646 113598 113818 113530 113526 113362
113301 113550 113876 113863 113683 113811 113756 113613 113684 113874
113808 113828 113661 113471 113558 113847 113765 113517 113295 113542
113558 113448 113457 113787 113721 113532 113392 113552 113678 113482
113380 113507 113299 113678 113703 113880 113810 113509 113325 113880
113841 113824 113754 113537 113611 113489 114105 113522 113539 113431
114074 113868 113772 113575 113988 113591 113585 113699 113869 113505
113308 113510 113833 113727 113290 113486 113741 113328 113618 113747
113708 113540 113485 113539 113665 113499 113268 113312 113508 113512
113327 113901 113882 113822 113807 113646 113723 113885 113824 113392
113415 113488 113258 113861 113743 113533 113546 113521 113354 113443
113339 113557 113708 113492 113802 113719 114111 113525 114086 113562
114017 113485 113255 113560 113919 113468 113283 113400 113713 113729
113806 113528 113401 113526 113618 113205 113923 113686 113819 113915
113882 113475 113242 113495 113888 113805 113261 113604 113751 113212
113566 113840 113736 113300 113454 113470 113217 113523 113461 113773
113748 113530 113686 113509 113276 113361 113356 113470 114106 113499
114087 113516 113672 113777 114036 113473 113200 113943 113947 113463
113959 113919 113879 113415 113278 113291 113860 113509 113860 113803
113544 113517 113313 113116 113741 113560 113759 113799 113766 113447
113484 113195 113219 113139 113611 113726 113815 113204 113484 113509
113367 113453 113178 113503 113633 113965 113499 113198 113949 113979
113247 113369 113861 113892 113634 113814 113433 114104 113459 113148
113462 114091 113804 113836 113485 114052 113346 113275 113430 113989
113484 113453 113508 113224 113750 113843 113261 113895 113519 113735
113124 113774 113466 113131 113406 113198 113697 113877 113127 113636
113938 114003 113863 114011 113491 113270 113466 113552 113427 113141
113756 113920 113144 113501 113476 113123 113584 113822 113722 113913
113193 113376 113439 113096 113394 114102 113418 113731 113916 114090
113459 113355 113459 114057 113305 113268 113478 113470 113675 113140
113457 113998 113972 113277 113837 114050 113905 113448 113067 113634
113914 113662 114048 113378 113174 113071 113780 113665 113988 113050
113434 113459 113640 113460 113178 113509 113788 113407 113098 113691
113981 113457 113048 113124 113503 113652 113970 113212 113372 113425
113035 113924 114040 113430 113259 113436 113639 114095 113597 113452
113058 113365 114090 113371 114079 113304 113250 113415 113562 114113
114046 113438 113987 113534 113904 113294 113643 114035 113892 113433
112993 113367 113136 113036 113768 113408 113365 113432 113092 113651
114040 113469 113733 113015 113631 113441 112968 113392 113041 113992
113163 113781 114114 113495 113546 113978 113460 114162 113405 113171
113241 113358 113415 113594 114146 113511 113405 112963 113435 112978
113504 113872 113641 114076 113350 114051 113336 114041 113318 113224
113372 114008 113434 113949 113411 112913 113386 113858 113569 114048
113388 113278 113361 113095 113415 113016 113228 113456 113778 113884
113662 113743 113492 114186 113198 113614 113476 114185 113418 113534
113959 112888 113379 112988 113269 113617 114181 113482 113400 113430
113391 113100 113298 113342 113391 112905 113592 114079 113498 113817
113414 112905 113342 113199 113358 113978 113330 113585 113970 113531
113819 113565 114038 113346 113941 113430 114170 113423 113400 112854
113889 113379 113215 113443 113595 113457 113810 113396 113575 114208
112954 113360 113063 113399 113710 113534 113917 113593 114192 113404
112835 113355 113594 113371 112954 113397 113379 113352 113469 113588
114059 113374 113052 113498 113761 113569 113534 113384 112876 113500
113784 113345 113330 113398 112864 113570 114141 113568 113988 113359
113188 113386 113866 113353 113573 114205 113861 113371 113183 113349
113844 113450 113562 113398 112832 113405 113808 113383 112930 113547
113876 113488 113750 113358 113592 114178 113055 113496 113669 113397
112824 113637 113437 113571 113589 113979 113572 113536 113359 112954
113399 113363 113580 113753 113515 113741 113366 113047 113402 113458
113565 114045 113581 113940 113382 112868 113361 112888 113378 113330
113587 114138 113461 113560 113371 113199 113371 113198 113422 113717
113394 113719 113366 112860 113592 113974 113572 113865 113380 113718
113369 112954 113400 113707 113590 113659 113352 113077 113490 113676
113598 113542 113599 113920 113568 113698 113528 113622 113375 112868
113409 113398 113469 113546 113536 113582 113847 113740 113346 112992
113358 113091 113429 113606 113929 113452 113584 113850 113372 112929
113338 112945 113400 113342 113482 113598 113841 113602 113600 113372
113610 113677 113265 113597 113852 113376 113229 113580 113561 113335
112937 113447 113536 113428 113546 113359 113033 113417 113567 113578
113640 113397 113617 113904 113586 113347 113128 113449 113589 113576
113668 113348 112963 113489 113567 113422 113474 113564 113771 113337
113062 113356 113189 113449 113587 113727 113520 113630 113888 113429
113618 113617 113448 113356 113589 113678 113039 113333 113035 113609
113865 113581 113618 113397 113362 113504 113668 113627 113851 113380
113375 113570 113649 113366 113274 113334 113045 113356 113635 113843
113157 113461 113575 113690 113337 113451 113355 113442 113399 113396
113453 113338 113197 113395 113495 113589 113798 113439 113580 113337
113592 113812 113088 113635 113412 113656 113856 113509 113598 113631
113362 113324 113586 113682 113329 113152 113393 113490 113572 113664
113620 113807 113391 113344 113177 113444 113327 113564 113706 113141
113525 113740 113650 113826 113394 113512 113369 113382 113655 113823
113573 113750 113330 113355 113304 113166 113346 113321 113616 113649
113462 113134 113454 113595 113652 113161 113439 113597 113792 113228
113610 113818 113377 113326 113272 113314 113459 113572 113685 113690
113675 113812 113337 113337 113223 113394 113563 113683 113371 113475
113338 113446 113321 113248 113633 113814 113338 113459 113558 113726
113346 113322 113548 113787 113343 113439 113669 113816 113323 113252
113412 113653 113574 113758 113668 113818 113633 113332 113400 113612
113664 113577 113670 113360 113454 113330 113289 113561 113690 113324
113362 113605 113832 113631 113811 113454 112950 113483 113553 113693
113799 113445 113687 113832 112983 113422 113069 113314 113336 113349
113184 113340 113356 113288 113384 113623 113296 113642 113837 113559
113740 113289 113383 113315 113330 113306 113430 113631 113652 113684
113798 113573 113846 113597 113677 113352 113581 113813 113464 113567
113678 113674 113907 113316 113437 113324 113434 113779 113349 113554
113686 113313 113419 113613 113866 113371 113600 113336 113398 113553
113702 113312 113650 113858 113397 113696 113873 113509 113888 113449
112804 113435 113566 113784 112841 113645 113934 113405 112941 113311
113386 113351 113473 113653 113332 113076 113402 113618 113670 113765
113272 113587 113687 113213 113278 113589 113862 113328 113562 113674
113318 113394 113693 113900 113597 113898 113301 113678 113970 113404
113369 113588 113552 113680 113459 113902 113313 113332 113425 113438
113614 113939 113561 113733 113313 113441 113391 113727 113667 113944
113349 113700 113999 113482 113638 113673 113576 113838 113317 113606
113685 113433 113539 113974 113649 113975 113574 113683 113459 112711
113440 112751 113320 113432 113370 113427 113555 113663 113889 113564
113403 112857 113336 113591 113938 113003 113297 113154 113699 114061
113556 113691 113682 114125 113331 113622 113957 113448 113309 113287
113391 113684 113325 113384 113491 114009 113619 113986 113570 113782
113349 113485 113336 113658 113439 113626 113687 113587 113685 113701
114113 113336 113416 113579 113914 113825 113461 113683 114044 113561
113668 113371 113549 113653 114102 113573 114047 113552 113661 113339
113466 113595 113989 113458 113982 113395 113560 113723 113635 113487
112680 113343 113471 113463 112720 113426 112829 113709 114273 113372
112977 113683 114153 113649 113996 113361 113132 113645 113675 113357
113571 113856 113491 113620 114040 113605 113690 113384 113271 113416
113759 113527 113570 113674 114090 113388 113375 113550 113655 113379
113532 113580 113977 113388 113437 113706 114321 113699 114088 113445
113903 113652 113548 113676 114113 113380 113468 113404 113607 114118
113598 113593 114034 113557 113783 113379 113478 113658 113495 114049
113621 113682 113428 113684 113716 113583 113683 114359 113379 113486
113528 113684 114137 113498 113469 113571 113925 113675 114078 113439
113554 113660 113615 114036 113460 113394 113507 113541 113655 113489
113450 113810 113566 114145 113575 114022 113475 113542 113717 113417
113550 113707 114364 113460 113712 113654 114023 114248 113482 113951
113554 113851 113436 113640 113584 113631 113667 114024 114178 113442
113594 113682 113616 113563 113674 113428 113540 113655 113562 113985
113535 114085 113683 114109 113719 114394 113466 113701 113424 113623
114040 113575 113695 114151 113544 113532 113678 113542 113554 113638
113566 114030 113435 113534 113773 113488 113603 114179 113826 113661
113641 113705 114149 113591 113603 113672 113652 114020 113455 113719