#           y             T         TMean   TPrime2Mean           U_x           U_y           U_z       UMean_x       UMean_y       UMean_z UPrime2Mea... UPrime2Mea... UPrime2Mea... UPrime2Mea... UPrime2Mea... UPrime2Mea...            O2           H2O          C3H8             p         pMean   pPrime2Mean           CO2
         0.04        287.64       288.362      0.114278      -2.71523      -5.69954             0      -4.98476       -7.4619             0       20.4467       6.36605             0       35.3352             0             0      0.194213   9.78959e-16      0.155597        101855        103053        245926   1.79364e-15
     0.039975       287.638       288.362      0.114429      -2.75467      -5.73184             0       -4.9792      -7.46997             0        20.478       6.27047             0       35.4891             0             0      0.194124   9.77307e-16      0.155984        101854        103052        245901   1.79061e-15
    0.0399499       287.636       288.361       0.11458      -2.79412      -5.76413             0      -4.97363      -7.47804             0       20.5092       6.17488             0        35.643             0             0      0.194035   9.75656e-16      0.156371        101854        103052        245876   1.78758e-15
    0.0399249       287.634       288.361       0.11473      -2.83356      -5.79643             0      -4.96806       -7.4861             0       20.5405        6.0793             0       35.7969             0             0      0.193946   9.74004e-16      0.156758        101854        103052        245851   1.78456e-15
    0.0398999       287.632       288.361      0.114881        -2.873      -5.82873             0       -4.9625      -7.49417             0       20.5718       5.98372             0       35.9508             0             0      0.193857   9.72352e-16      0.157145        101854        103052        245826   1.78153e-15
    0.0398749        287.63        288.36      0.115032      -2.91244      -5.86103             0      -4.95693      -7.50223             0        20.603       5.88814             0       36.1046             0             0      0.193768     9.707e-16      0.157532        101854        103052        245801    1.7785e-15
    0.0398498       287.628        288.36      0.115183      -2.95189      -5.89332             0      -4.95137       -7.5103             0       20.6343       5.79255             0       36.2585             0             0      0.193679   9.69048e-16      0.157919        101854        103051        245776   1.77548e-15
    0.0398248       287.626        288.36      0.115334      -2.99133      -5.92562             0       -4.9458      -7.51837             0       20.6655       5.69697             0       36.4124             0             0       0.19359   9.67396e-16      0.158306        101854        103051        245751   1.77245e-15
    0.0397998       287.624       288.359      0.115485      -3.03077      -5.95792             0      -4.94024      -7.52643             0       20.6968       5.60139             0       36.5663             0             0      0.193501   9.65744e-16      0.158693        101854        103051        245726   1.76942e-15
    0.0397748       287.622       288.359      0.115636      -3.07021      -5.99022             0      -4.93467       -7.5345             0       20.7281       5.50581             0       36.7201             0             0      0.193412   9.64092e-16       0.15908        101854        103051        245701    1.7664e-15
    0.0397497        287.62       288.358      0.115787      -3.10966      -6.02251             0       -4.9291      -7.54256             0       20.7593       5.41022             0        36.874             0             0      0.193323    9.6244e-16      0.159467        101854        103051        245676   1.76337e-15
    0.0397247       287.618       288.358      0.115938       -3.1491      -6.05481             0      -4.92354      -7.55063             0       20.7906       5.31464             0       37.0279             0             0      0.193234   9.60788e-16      0.159854        101854        103050        245651   1.76034e-15
    0.0396997       287.616       288.358      0.116089      -3.18854      -6.08711             0      -4.91797       -7.5587             0       20.8218       5.21906             0       37.1818             0             0      0.193145   9.59136e-16      0.160241        101854        103050        245626   1.75732e-15
    0.0396747       287.614       288.357      0.116239      -3.22799      -6.11941             0      -4.91241      -7.56676             0       20.8531       5.12347             0       37.3356             0             0      0.193056   9.57484e-16      0.160628        101854        103050        245601   1.75429e-15
    0.0396496       287.612       288.357       0.11639      -3.26743       -6.1517             0      -4.90684      -7.57483             0       20.8844       5.02789             0       37.4895             0             0      0.192967   9.55832e-16      0.161015        101853        103050        245576   1.75126e-15
    0.0396246        287.61       288.357      0.116541      -3.30687        -6.184             0      -4.90127      -7.58289             0       20.9156       4.93231             0       37.6434             0             0      0.192878    9.5418e-16      0.161402        101853        103050        245551   1.74824e-15
    0.0395996       287.608       288.356      0.116692      -3.34631       -6.2163             0      -4.89571      -7.59096             0       20.9469       4.83673             0       37.7973             0             0      0.192789   9.52528e-16      0.161789        101853        103049        245526   1.74521e-15
    0.0395746       287.606       288.356      0.116843      -3.38576       -6.2486             0      -4.89014      -7.59903             0       20.9781       4.74114             0       37.9512             0             0        0.1927   9.50876e-16      0.162176        101853        103049        245501   1.74218e-15
    0.0395495       287.604       288.356      0.116994       -3.4252      -6.28089             0      -4.88458      -7.60709             0       21.0094       4.64556             0        38.105             0             0       0.19261   9.49224e-16      0.162563        101853        103049        245476   1.73916e-15
    0.0395245       287.601       288.355      0.117145      -3.46464      -6.31319             0      -4.87901      -7.61516             0       21.0406       4.54998             0       38.2589             0             0      0.192521   9.47572e-16       0.16295        101853        103049        245451   1.73613e-15
    0.0394995       287.599       288.355      0.117296      -3.50408      -6.34549             0      -4.87345      -7.62322             0       21.0719        4.4544             0       38.4128             0             0      0.192432    9.4592e-16      0.163337        101853        103048        245426    1.7331e-15
    0.0394745       287.597       288.355      0.117447      -3.54353      -6.37779             0      -4.86788      -7.63129             0       21.1032       4.35881             0       38.5667             0             0      0.192343   9.44269e-16      0.163724        101853        103048        245401   1.73008e-15
    0.0394494       287.595       288.354      0.117598      -3.58297      -6.41008             0      -4.86231      -7.63936             0       21.1344       4.26323             0       38.7205             0             0      0.192254   9.42617e-16      0.164111        101853        103048        245376   1.72705e-15
    0.0394244       287.593       288.354      0.117748      -3.62241      -6.44238             0      -4.85675      -7.64742             0       21.1657       4.16765             0       38.8744             0             0      0.192165   9.40965e-16      0.164498        101853        103048        245351   1.72402e-15
    0.0393994       287.591       288.354      0.117899      -3.66186      -6.47468             0      -4.85118      -7.65549             0       21.1969       4.07206             0       39.0283             0             0      0.192076   9.39313e-16      0.164885        101853        103048        245326     1.721e-15
    0.0393744       287.589       288.353       0.11805       -3.7013      -6.50698             0      -4.84562      -7.66355             0       21.2282       3.97648             0       39.1822             0             0      0.191987   9.37661e-16      0.165272        101853        103047        245301   1.71797e-15
    0.0393493       287.587       288.353      0.118201      -3.74074      -6.53927             0      -4.84005      -7.67162             0       21.2595        3.8809             0       39.3361             0             0      0.191898   9.36009e-16      0.165659        101853        103047        245276   1.71494e-15
    0.0393243       287.585       288.352      0.118352      -3.78018      -6.57157             0      -4.83449      -7.67969             0       21.2907       3.78532             0       39.4899             0             0      0.191809   9.34357e-16      0.166046        101852        103047        245251   1.71192e-15
    0.0392993       287.583       288.352      0.118503      -3.81963      -6.60387             0      -4.82892      -7.68775             0        21.322       3.68973             0       39.6438             0             0       0.19172   9.32705e-16      0.166433        101852        103047        245226   1.70889e-15
    0.0392743       287.581       288.352      0.118654      -3.85907      -6.63617             0      -4.82335      -7.69582             0       21.3532       3.59415             0       39.7977             0             0      0.191631   9.31053e-16       0.16682        101852        103047        245201   1.70586e-15
    0.0392492       287.579       288.351      0.118805      -3.89851      -6.66846             0      -4.81779      -7.70388             0       21.3845       3.49857             0       39.9516             0             0      0.191542   9.29401e-16      0.167207        101852        103046        245176   1.70284e-15
    0.0392242       287.577       288.351      0.118956      -3.93795      -6.70076             0      -4.81222      -7.71195             0       21.4157       3.40299             0       40.1054             0             0      0.191453   9.27749e-16      0.167594        101852        103046        245151   1.69981e-15
    0.0391992       287.575       288.351      0.119107       -3.9774      -6.73306             0      -4.80666      -7.72002             0        21.447        3.3074             0       40.2593             0             0      0.191364   9.26097e-16      0.167981        101852        103046        245126   1.69678e-15
    0.0391742       287.573        288.35      0.119258      -4.01684      -6.76536             0      -4.80109      -7.72808             0       21.4783       3.21182             0       40.4132             0             0      0.191275   9.24445e-16      0.168368        101852        103046        245101   1.69376e-15
    0.0391491       287.571        288.35      0.119408      -4.05628      -6.79765             0      -4.79553      -7.73615             0       21.5095       3.11624             0       40.5671             0             0      0.191186   9.22793e-16      0.168756        101852        103046        245076   1.69073e-15
    0.0391241       287.569        288.35      0.119559      -4.09573      -6.82995             0      -4.78996      -7.74421             0       21.5408       3.02065             0       40.7209             0             0      0.191097   9.21141e-16      0.169143        101852        103045        245051    1.6877e-15
    0.0390991       287.567       288.349       0.11971      -4.13517      -6.86225             0      -4.78439      -7.75228             0        21.572       2.92507             0       40.8748             0             0      0.191008   9.19489e-16       0.16953        101852        103045        245026   1.68468e-15
    0.0390741       287.565       288.349      0.119861      -4.17461      -6.89455             0      -4.77883      -7.76035             0       21.6033       2.82949             0       41.0287             0             0      0.190919   9.17837e-16      0.169917        101852        103045        245001   1.68165e-15
     0.039049       287.563       288.349      0.120012      -4.21405      -6.92684             0      -4.77326      -7.76841             0       21.6346       2.73391             0       41.1826             0             0       0.19083   9.16185e-16      0.170304        101852        103045        244976   1.67862e-15
     0.039024       287.561       288.348      0.120163       -4.2535      -6.95914             0       -4.7677      -7.77648             0       21.6658       2.63832             0       41.3365             0             0      0.190741   9.14533e-16      0.170691        101852        103045        244951    1.6756e-15
     0.038999       287.559       288.348      0.120312       -4.2927      -6.99134             0       -4.7619       -7.7844             0       21.6967       2.54337             0       41.4908             0             0      0.190654   9.12913e-16      0.171068        101851        103044        244926   1.67263e-15
     0.038974       287.558       288.348      0.120404      -4.32605      -7.02126             0      -4.75063      -7.78887             0       21.7184       2.46362             0        41.657             0             0      0.190623   9.12036e-16      0.171203        101851        103044        244910   1.67102e-15
    0.0389489       287.557       288.347      0.120497      -4.35939      -7.05119             0      -4.73935      -7.79334             0       21.7402       2.38386             0       41.8231             0             0      0.190592    9.1116e-16      0.171338        101851        103044        244894   1.66942e-15
    0.0389239       287.556       288.347       0.12059      -4.39274      -7.08111             0      -4.72807      -7.79781             0        21.762        2.3041             0       41.9892             0             0      0.190561   9.10284e-16      0.171474        101851        103044        244878   1.66781e-15
    0.0388989       287.556       288.347      0.120683      -4.42609      -7.11103             0       -4.7168      -7.80228             0       21.7837       2.22434             0       42.1553             0             0       0.19053   9.09408e-16      0.171609        101851        103044        244862    1.6662e-15
    0.0388739       287.555       288.346      0.120776      -4.45944      -7.14095             0      -4.70552      -7.80675             0       21.8055       2.14459             0       42.3215             0             0      0.190499   9.08532e-16      0.171744        101851        103043        244846    1.6646e-15
    0.0388488       287.554       288.346      0.120869      -4.49279      -7.17087             0      -4.69425      -7.81122             0       21.8272       2.06483             0       42.4876             0             0      0.190468   9.07656e-16       0.17188        101851        103043        244830   1.66299e-15
    0.0388238       287.553       288.345      0.120962      -4.52614      -7.20079             0      -4.68297      -7.81569             0        21.849       1.98507             0       42.6537             0             0      0.190437   9.06779e-16      0.172015        101851        103043        244814   1.66139e-15
    0.0387988       287.552       288.345      0.121055      -4.55949      -7.23071             0      -4.67169      -7.82016             0       21.8707       1.90532             0       42.8198             0             0      0.190405   9.05903e-16       0.17215        101851        103043        244798   1.65978e-15
    0.0387738       287.551       288.345      0.121148      -4.59284      -7.26064             0      -4.66042      -7.82463             0       21.8925       1.82556             0        42.986             0             0      0.190374   9.05027e-16      0.172286        101851        103043        244781   1.65818e-15
    0.0387487       287.551       288.344      0.121241      -4.62619      -7.29056             0      -4.64914       -7.8291             0       21.9142        1.7458             0       43.1521             0             0      0.190343   9.04151e-16      0.172421        101851        103042        244765   1.65657e-15
    0.0387237        287.55       288.344      0.121334      -4.65954      -7.32048             0      -4.63786      -7.83357             0        21.936       1.66604             0       43.3182             0             0      0.190312   9.03275e-16      0.172556        101851        103042        244749   1.65497e-15
    0.0386987       287.549       288.344      0.121427      -4.69289       -7.3504             0      -4.62659      -7.83804             0       21.9577       1.58629             0       43.4844             0             0      0.190281   9.02399e-16      0.172692        101851        103042        244733   1.65336e-15
    0.0386737       287.548       288.343       0.12152      -4.72624      -7.38032             0      -4.61531      -7.84251             0       21.9795       1.50653             0       43.6505             0             0       0.19025   9.01522e-16      0.172827        101851        103042        244717   1.65176e-15
    0.0386486       287.547       288.343      0.121613      -4.75959      -7.41024             0      -4.60403      -7.84698             0       22.0012       1.42677             0       43.8166             0             0      0.190219   9.00646e-16      0.172963        101851        103042        244701   1.65015e-15
    0.0386236       287.547       288.343      0.121706      -4.79294      -7.44016             0      -4.59276      -7.85145             0        22.023       1.34701             0       43.9827             0             0      0.190187    8.9977e-16      0.173098        101851        103042        244685   1.64855e-15
    0.0385986       287.546       288.342      0.121799      -4.82629      -7.47008             0      -4.58148      -7.85592             0       22.0447       1.26726             0       44.1489             0             0      0.190156   8.98894e-16      0.173233        101851        103041        244669   1.64694e-15
    0.0385736       287.545       288.342      0.121892      -4.85964      -7.50001             0      -4.57021      -7.86039             0       22.0665        1.1875             0        44.315             0             0      0.190125   8.98018e-16      0.173369        101851        103041        244653   1.64534e-15
    0.0385485       287.544       288.342      0.121984      -4.89299      -7.52993             0      -4.55893      -7.86486             0       22.0882       1.10774             0       44.4811             0             0      0.190094   8.97142e-16      0.173504        101851        103041        244637   1.64373e-15
    0.0385235       287.543       288.341      0.122077      -4.92634      -7.55985             0      -4.54765      -7.86933             0         22.11       1.02798             0       44.6473             0             0      0.190063   8.96265e-16      0.173639        101851        103041        244621   1.64213e-15
    0.0384985       287.543       288.341       0.12217      -4.95968      -7.58977             0      -4.53638       -7.8738             0       22.1317      0.948227             0       44.8134             0             0      0.190032   8.95389e-16      0.173775        101851        103041        244605   1.64052e-15
    0.0384735       287.542       288.341      0.122263      -4.99303      -7.61969             0       -4.5251      -7.87827             0       22.1535       0.86847             0       44.9795             0             0      0.190001   8.94513e-16       0.17391        101851        103040        244589   1.63891e-15
    0.0384484       287.541        288.34      0.122356      -5.02638      -7.64961             0      -4.51382      -7.88274             0       22.1752      0.788712             0       45.1456             0             0       0.18997   8.93637e-16      0.174045        101851        103040        244573   1.63731e-15
    0.0384234        287.54        288.34      0.122449      -5.05973      -7.67953             0      -4.50255      -7.88721             0        22.197      0.708955             0       45.3118             0             0      0.189938   8.92761e-16      0.174181        101851        103040        244557    1.6357e-15
    0.0383984       287.539       288.339      0.122542      -5.09308      -7.70946             0      -4.49127      -7.89168             0       22.2188      0.629197             0       45.4779             0             0      0.189907   8.91885e-16      0.174316        101851        103040        244541    1.6341e-15
    0.0383734       287.538       288.339      0.122635      -5.12643      -7.73938             0         -4.48      -7.89615             0       22.2405       0.54944             0        45.644             0             0      0.189876   8.91008e-16      0.174451        101851        103040        244525   1.63249e-15
    0.0383483       287.538       288.339      0.122728      -5.15978       -7.7693             0      -4.46872      -7.90062             0       22.2623      0.469683             0       45.8102             0             0      0.189845   8.90132e-16      0.174587        101851        103039        244509   1.63089e-15
    0.0383233       287.537       288.338      0.122821      -5.19313      -7.79922             0      -4.45744      -7.90509             0        22.284      0.389925             0       45.9763             0             0      0.189814   8.89256e-16      0.174722        101851        103039        244492   1.62928e-15
    0.0382983       287.536       288.338      0.122914      -5.22648      -7.82914             0      -4.44617      -7.90956             0       22.3058      0.310168             0       46.1424             0             0      0.189783    8.8838e-16      0.174857        101851        103039        244476   1.62768e-15
    0.0382733       287.535       288.338      0.123007      -5.25983      -7.85906             0      -4.43489      -7.91403             0       22.3275      0.230411             0       46.3085             0             0      0.189752   8.87504e-16      0.174993        101851        103039        244460   1.62607e-15
    0.0382482       287.534       288.337        0.1231      -5.29318      -7.88898             0      -4.42361       -7.9185             0       22.3493      0.150653             0       46.4747             0             0      0.189721   8.86628e-16      0.175128        101851        103039        244444   1.62447e-15
    0.0382232       287.534       288.337      0.123193      -5.32653      -7.91891             0      -4.41234      -7.92297             0        22.371      0.070896             0       46.6408             0             0      0.189689   8.85751e-16      0.175263        101851        103038        244428   1.62286e-15
    0.0381982       287.533       288.337      0.123286      -5.35988      -7.94883             0      -4.40106      -7.92744             0       22.3928   -0.00886139             0       46.8069             0             0      0.189658   8.84875e-16      0.175399        101851        103038        244412   1.62126e-15
    0.0381732       287.532       288.336      0.123379      -5.39323      -7.97875             0      -4.38978      -7.93191             0       22.4145    -0.0886188             0        46.973             0             0      0.189627   8.83999e-16      0.175534        101851        103038        244396   1.61965e-15
    0.0381481       287.531       288.336      0.123472      -5.42658      -8.00867             0      -4.37851      -7.93638             0       22.4363     -0.168376             0       47.1392             0             0      0.189596   8.83123e-16       0.17567        101851        103038        244380   1.61805e-15
    0.0381231        287.53       288.336      0.123565      -5.45993      -8.03859             0      -4.36723      -7.94085             0        22.458     -0.248133             0       47.3053             0             0      0.189565   8.82247e-16      0.175805        101851        103038        244364   1.61644e-15
    0.0380981       287.529       288.335      0.123657      -5.49328      -8.06851             0      -4.35596      -7.94532             0       22.4798     -0.327891             0       47.4714             0             0      0.189534   8.81371e-16       0.17594        101851        103038        244348   1.61484e-15
    0.0380731       287.529       288.335       0.12375      -5.52663      -8.09843             0      -4.34468      -7.94979             0       22.5015     -0.407648             0       47.6376             0             0      0.189503   8.80494e-16      0.176076        101851        103037        244332   1.61323e-15
     0.038048       287.528       288.334      0.123843      -5.55997      -8.12835             0       -4.3334      -7.95426             0       22.5233     -0.487406             0       47.8037             0             0      0.189471   8.79618e-16      0.176211        101851        103037        244316   1.61162e-15
     0.038023       287.527       288.334      0.123936      -5.59332      -8.15828             0      -4.32213      -7.95873             0        22.545     -0.567163             0       47.9698             0             0       0.18944   8.78742e-16      0.176346        101851        103037        244300   1.61002e-15
     0.037998       287.526       288.334      0.124025      -5.62601      -8.18778             0      -4.31038      -7.96285             0        22.565     -0.645247             0       48.1363             0             0      0.189411   8.77904e-16      0.176473        101851        103037        244285   1.60848e-15
     0.037973       287.526       288.334      0.124059      -5.65104      -8.21242             0      -4.29318      -7.96301             0       22.5644     -0.704083             0       48.3072             0             0      0.189405   8.77497e-16      0.176499        101852        103037        244278   1.60774e-15
    0.0379479       287.526       288.333      0.124093      -5.67606      -8.23707             0      -4.27599      -7.96318             0       22.5639      -0.76292             0        48.478             0             0      0.189399   8.77091e-16      0.176525        101852        103036        244271   1.60699e-15
    0.0379229       287.526       288.333      0.124127      -5.70109      -8.26172             0       -4.2588      -7.96334             0       22.5633     -0.821757             0       48.6489             0             0      0.189393   8.76684e-16      0.176551        101852        103036        244265   1.60625e-15
    0.0378979       287.525       288.333      0.124161      -5.72612      -8.28637             0       -4.2416       -7.9635             0       22.5627     -0.880594             0       48.8198             0             0      0.189387   8.76278e-16      0.176578        101852        103036        244258    1.6055e-15
    0.0378729       287.525       288.332      0.124196      -5.75115      -8.31102             0      -4.22441      -7.96366             0       22.5622     -0.939431             0       48.9906             0             0      0.189381   8.75871e-16      0.176604        101852        103036        244252   1.60476e-15
    0.0378478       287.525       288.332       0.12423      -5.77618      -8.33567             0      -4.20722      -7.96383             0       22.5616     -0.998267             0       49.1615             0             0      0.189375   8.75465e-16       0.17663        101852        103036        244245   1.60401e-15
    0.0378228       287.525       288.332      0.124264      -5.80121      -8.36032             0      -4.19002      -7.96399             0       22.5611       -1.0571             0       49.3323             0             0      0.189369   8.75058e-16      0.176656        101852        103036        244239   1.60327e-15
    0.0377978       287.525       288.332      0.124298      -5.82624      -8.38496             0      -4.17283      -7.96415             0       22.5605      -1.11594             0       49.5032             0             0      0.189363   8.74652e-16      0.176682        101852        103036        244232   1.60253e-15
    0.0377728       287.524       288.331      0.124333      -5.85127      -8.40961             0      -4.15564      -7.96431             0       22.5599      -1.17478             0        49.674             0             0      0.189357   8.74245e-16      0.176709        101852        103035        244226   1.60178e-15
    0.0377477       287.524       288.331      0.124367      -5.87629      -8.43426             0      -4.13844      -7.96448             0       22.5594      -1.23361             0       49.8449             0             0      0.189351   8.73839e-16      0.176735        101852        103035        244219   1.60104e-15
    0.0377227       287.524       288.331      0.124401      -5.90132      -8.45891             0      -4.12125      -7.96464             0       22.5588      -1.29245             0       50.0158             0             0      0.189345   8.73432e-16      0.176761        101853        103035        244213   1.60029e-15