#           y             T         TMean   TPrime2Mean           U_x           U_y           U_z       UMean_x       UMean_y       UMean_z UPrime2Mea... UPrime2Mea... UPrime2Mea... UPrime2Mea... UPrime2Mea... UPrime2Mea...            O2           H2O          C3H8             p         pMean   pPrime2Mean           CO2
         0.03       288.104       288.522      0.306182       2.99846       8.53446             0       3.78529       1.00641             0       18.6546      -1.63153             0       52.6518             0             0      0.173995   1.20798e-13      0.243501        102370        103105        275450   2.21325e-13
    0.0301702       288.103       288.521      0.303169       2.90129       8.62125             0       3.75491       1.04017             0       18.7184       -1.6103             0       52.5388             0             0      0.173932   1.15793e-13      0.243776        102371        103105        274972   2.12154e-13
    0.0303403       288.102        288.52      0.300155       2.80413       8.70804             0       3.72452       1.07392             0       18.7821      -1.58906             0       52.4258             0             0      0.173868   1.10788e-13      0.244051        102371        103105        274495   2.02983e-13
    0.0305105       288.101       288.518      0.297141       2.70697       8.79483             0       3.69414       1.10767             0       18.8458      -1.56783             0       52.3128             0             0      0.173805   1.05782e-13      0.244325        102371        103105        274018   1.93813e-13
    0.0306807         288.1       288.517      0.294127        2.6098       8.88162             0       3.66376       1.14142             0       18.9095       -1.5466             0       52.1998             0             0      0.173742   1.00777e-13        0.2446        102371        103106        273541   1.84642e-13
    0.0308509       288.099       288.516      0.291113       2.51264        8.9684             0       3.63337       1.17517             0       18.9733      -1.52537             0       52.0869             0             0      0.173679   9.57715e-14      0.244875        102371        103106        273064   1.75471e-13
     0.031021         288.1       288.514      0.288228       2.41981       9.04712             0       3.60513       1.20932             0       19.0572      -1.49958             0       51.9615             0             0      0.173629   9.09485e-14      0.245092        102371        103106        272581   1.66635e-13
    0.0311912       288.112       288.513      0.286255       2.35774       9.06854             0       3.59211       1.24631             0       19.2848      -1.44149             0       51.7479             0             0      0.173673   8.74191e-14      0.244902        102371        103107        272059   1.60168e-13
    0.0313614       288.125       288.511      0.284283       2.29568       9.08997             0       3.57908       1.28329             0       19.5123       -1.3834             0       51.5344             0             0      0.173716   8.38897e-14      0.244711        102371        103107        271537   1.53702e-13
    0.0315315       288.137       288.509       0.28231       2.23361       9.11139             0       3.56606       1.32028             0       19.7399      -1.32531             0       51.3209             0             0       0.17376   8.03602e-14      0.244521        102371        103108        271015   1.47235e-13
    0.0317017        288.15       288.507      0.280338       2.17154       9.13282             0       3.55303       1.35727             0       19.9674      -1.26722             0       51.1074             0             0      0.173804   7.68308e-14       0.24433        102371        103108        270493   1.40768e-13
    0.0318719       288.162       288.506      0.278366       2.10948       9.15424             0       3.54001       1.39426             0       20.1949      -1.20912             0       50.8939             0             0      0.173848   7.33014e-14       0.24414        102371        103108        269972   1.34302e-13
     0.032042       288.178       288.504      0.276708       2.05012       9.16644             0       3.53035       1.43143             0       20.4695      -1.13682             0         50.66             0             0      0.173952   6.97359e-14      0.243686        102371        103109        269447   1.27769e-13
    0.0322122       288.203       288.502      0.276011       1.99901        9.1505             0       3.53098       1.46917             0       20.8874      -1.02122             0        50.364             0             0      0.174241   6.60605e-14      0.242432        102371        103109        268916   1.21035e-13
    0.0323824       288.228         288.5      0.275314        1.9479       9.13455             0        3.5316       1.50691             0       21.3053     -0.905615             0       50.0679             0             0      0.174529    6.2385e-14      0.241177        102371        103110        268384   1.14301e-13
    0.0325526       288.253       288.498      0.274616       1.89679       9.11861             0       3.53222       1.54465             0       21.7232     -0.790011             0       49.7718             0             0      0.174818   5.87096e-14      0.239922        102371        103111        267853   1.07567e-13
    0.0327227       288.279       288.496      0.273919       1.84568       9.10267             0       3.53284       1.58239             0        22.141     -0.674406             0       49.4758             0             0      0.175106   5.50341e-14      0.238668        102371        103111        267321   1.00833e-13
    0.0328929       288.304       288.495      0.273222       1.79456       9.08673             0       3.53347       1.62013             0       22.5589     -0.558802             0       49.1797             0             0      0.175395   5.13587e-14      0.237413        102371        103112        266790   9.40987e-14
    0.0330631       288.332       288.493      0.272903        1.7494       9.05985             0       3.53688       1.65747             0       23.0767     -0.422605             0       48.8599             0             0      0.175763   4.76903e-14      0.235814        102371        103112        266262   8.73775e-14
    0.0332332       288.364       288.491      0.273228       1.71435       9.01441             0       3.54505       1.69412             0       23.7643     -0.251434             0       48.4998             0             0      0.176265   4.40338e-14      0.233631        102370        103113        265742   8.06782e-14
    0.0334034       288.397       288.489      0.273552        1.6793       8.96897             0       3.55321       1.73076             0       24.4518    -0.0802637             0       48.1397             0             0      0.176767   4.03773e-14      0.231448        102370        103114        265222   7.39788e-14
    0.0335736       288.429       288.487      0.273877       1.64424       8.92352             0       3.56138       1.76741             0       25.1394      0.090907             0       47.7795             0             0      0.177269   3.67208e-14      0.229264        102369        103114        264703   6.72794e-14
    0.0337437       288.462       288.485      0.274201       1.60919       8.87808             0       3.56954       1.80406             0       25.8269      0.262078             0       47.4194             0             0      0.177771   3.30644e-14      0.227081        102369        103115        264183   6.05801e-14
    0.0339139       288.495       288.483      0.274526       1.57414       8.83264             0       3.57771       1.84071             0       26.5144      0.433248             0       47.0593             0             0      0.178273   2.94079e-14      0.224898        102368        103116        263663   5.38807e-14
    0.0340841       288.525       288.481      0.275172       1.55771       8.76897             0       3.58839        1.8758             0       27.3343      0.626658             0       46.6698             0             0      0.178712   2.62745e-14      0.222992        102367        103116        263155   4.81398e-14
    0.0342543       288.553        288.48      0.276146       1.56035       8.68664             0       3.60165        1.9093             0       28.2895      0.842835             0       46.2503             0             0      0.179085   2.36768e-14      0.221371        102366        103117        262659   4.33803e-14
    0.0344244       288.582       288.478      0.277121       1.56298       8.60431             0        3.6149       1.94281             0       29.2447       1.05901             0       45.8307             0             0      0.179457    2.1079e-14       0.21975        102365        103118        262164   3.86207e-14
    0.0345946        288.61       288.476      0.278096       1.56562       8.52198             0       3.62816       1.97631             0       30.1999       1.27519             0       45.4112             0             0       0.17983   1.84813e-14      0.218129        102364        103119        261668   3.38611e-14
    0.0347648       288.639       288.474      0.279071       1.56826       8.43965             0       3.64142       2.00981             0       31.1551       1.49137             0       44.9917             0             0      0.180203   1.58835e-14      0.216508        102363        103120        261173   2.91015e-14
    0.0349349       288.667       288.473      0.280045        1.5709       8.35732             0       3.65467       2.04331             0       32.1103       1.70755             0       44.5721             0             0      0.180576   1.32857e-14      0.214887        102362        103120        260677    2.4342e-14
    0.0351051        288.69       288.471      0.280956       1.60659       8.24681             0       3.67144       2.07399             0       33.1523       1.92767             0        44.118             0             0      0.180741   1.15752e-14      0.214168        102361        103121        260196   2.12079e-14
    0.0352753       288.709        288.47      0.281827       1.66274       8.11884             0       3.69039       2.10291             0        34.248       2.15024             0       43.6425             0             0      0.180778   1.04138e-14      0.214008        102360        103122        259724     1.908e-14
    0.0354454       288.729       288.469      0.282698       1.71889       7.99087             0       3.70934       2.13184             0       35.3436       2.37282             0        43.167             0             0      0.180815   9.25245e-15      0.213848        102358        103123        259253   1.69522e-14
    0.0356156       288.749       288.468      0.283568       1.77504        7.8629             0       3.72828       2.16077             0       36.4393       2.59539             0       42.6915             0             0      0.180852   8.09109e-15      0.213688        102357        103124        258781   1.48244e-14
    0.0357858       288.768       288.467      0.284439        1.8312       7.73493             0       3.74723       2.18969             0       37.5349       2.81796             0        42.216             0             0      0.180888   6.92972e-15      0.213528        102355        103125        258309   1.26965e-14
     0.035956       288.788       288.466       0.28531       1.88735       7.60697             0       3.76617       2.21862             0       38.6306       3.04053             0       41.7405             0             0      0.180925   5.76836e-15      0.213368        102354        103126        257838   1.05687e-14
    0.0361261       288.805       288.465      0.285383       1.98735       7.44301             0       3.78909       2.24343             0       39.7294       3.22686             0       41.2366             0             0      0.180749   5.19385e-15      0.214133        102352        103127        257405    9.5161e-15
    0.0362963       288.822       288.465      0.285176       2.10266       7.26649             0        3.8134        2.2668             0       40.8293       3.40053             0       40.7228             0             0      0.180499   4.82426e-15      0.215221        102351        103128        256985   8.83895e-15
    0.0364665       288.838       288.465       0.28497       2.21797       7.08998             0       3.83772       2.29017             0       41.9292        3.5742             0        40.209             0             0      0.180249   4.45468e-15      0.216308        102349        103129        256566   8.16181e-15
    0.0366366       288.855       288.464      0.284764       2.33328       6.91346             0       3.86203       2.31354             0       43.0291       3.74786             0       39.6952             0             0      0.179999    4.0851e-15      0.217396        102348        103130        256146   7.48467e-15
    0.0368068       288.872       288.464      0.284557       2.44859       6.73694             0       3.88634       2.33691             0       44.1291       3.92153             0       39.1814             0             0      0.179749   3.71552e-15      0.218483        102346        103131        255727   6.80752e-15
     0.036977       288.888       288.464      0.284351        2.5639       6.56042             0       3.91065       2.36028             0        45.229        4.0952             0       38.6676             0             0      0.179499   3.34594e-15      0.219571        102344        103132        255307   6.13038e-15
    0.0371471       288.904       288.464      0.282682       2.73157       6.34451             0       3.93936       2.37697             0       46.2265       4.22667             0       38.1298             0             0      0.179101    3.1821e-15      0.221301        102343        103134        254940    5.8302e-15
    0.0373173        288.92       288.464      0.280784       2.90743       6.12243             0       3.96876       2.39262             0        47.208       4.35153             0       37.5882             0             0       0.17868   3.05046e-15      0.223132        102341        103135        254581     5.589e-15
    0.0374875       288.936       288.464      0.278886       3.08329       5.90035             0       3.99816       2.40827             0       48.1895        4.4764             0       37.0466             0             0      0.178258   2.91881e-15      0.224963        102340        103136        254222   5.34781e-15
    0.0376577       288.952       288.464      0.276988       3.25915       5.67827             0       4.02756       2.42391             0        49.171       4.60126             0       36.5051             0             0      0.177837   2.78717e-15      0.226794        102339        103137        253864   5.10661e-15
    0.0378278       288.967       288.464       0.27509       3.43501       5.45619             0       4.05696       2.43956             0       50.1525       4.72613             0       35.9635             0             0      0.177416   2.65552e-15      0.228625        102337        103138        253505   4.86541e-15
     0.037998       288.983       288.465      0.273192       3.61087       5.23411             0       4.08635       2.45521             0       51.1341       4.85099             0       35.4219             0             0      0.176995   2.52388e-15      0.230456        102336        103140        253146   4.62422e-15
    0.0381682       288.994       288.465      0.269605       3.84577        4.9747             0       4.12127       2.46088             0       51.8924       4.98992             0       34.8488             0             0      0.176585   2.47285e-15       0.23224        102335        103141        252859   4.53072e-15
    0.0383383       289.005       288.465      0.265997       4.08137       4.71483             0       4.15626       2.46643             0        52.648       5.12902             0       34.2752             0             0      0.176175   2.42277e-15      0.234023        102334        103142        252573   4.43897e-15
    0.0385085       289.016       288.465      0.262389       4.31696       4.45497             0       4.19124       2.47197             0       53.4036       5.26812             0       33.7017             0             0      0.175765    2.3727e-15      0.235806        102333        103143        252287   4.34723e-15
    0.0386787       289.027       288.465      0.258782       4.55256       4.19511             0       4.22622       2.47752             0       54.1593       5.40722             0       33.1282             0             0      0.175355   2.32263e-15      0.237589        102332        103145        252001   4.25549e-15
    0.0388488       289.038       288.465      0.255174       4.78816       3.93525             0       4.26121       2.48307             0       54.9149       5.54632             0       32.5547             0             0      0.174944   2.27256e-15      0.239372        102331        103146        251715   4.16375e-15
     0.039019       289.048       288.465      0.251463       5.02951       3.67312             0        4.2966       2.48744             0       55.6426       5.69182             0       31.9766             0             0       0.17455   2.22599e-15      0.241085        102330        103147        251437   4.07843e-15
    0.0391892       289.051       288.464      0.246932       5.31658       3.39303             0       4.33522       2.48247             0       56.1482       5.88821             0       31.3625             0             0      0.174284   2.20732e-15      0.242245        102330        103148        251227   4.04422e-15
    0.0393594       289.055       288.464      0.242401       5.60365       3.11293             0       4.37384        2.4775             0       56.6539       6.08461             0       30.7484             0             0      0.174017   2.18865e-15      0.243405        102330        103150        251018   4.01001e-15
    0.0395295       289.059       288.463      0.237869       5.89072       2.83284             0       4.41246       2.47253             0       57.1595         6.281             0       30.1344             0             0       0.17375   2.16997e-15      0.244564        102330        103151        250808    3.9758e-15
    0.0396997       289.063       288.463      0.233338       6.17779       2.55275             0       4.45109       2.46756             0       57.6651        6.4774             0       29.5203             0             0      0.173484    2.1513e-15      0.245724        102329        103152        250599   3.94159e-15
    0.0398699       289.067       288.463      0.228807       6.46486       2.27265             0       4.48971       2.46259             0       58.1707       6.67379             0       28.9062             0             0      0.173217   2.13263e-15      0.246883        102329        103153        250389   3.90738e-15
      0.04004       289.068       288.462      0.224381       6.75736       1.99594             0        4.5285       2.45578             0       58.6271       6.87668             0       28.2846             0             0      0.172993   2.11906e-15      0.247858        102329        103155        250199   3.88252e-15
    0.0402102       289.063       288.461        0.2203       7.06751       1.73023             0       4.56785       2.44298             0       58.9236       7.10066             0       27.6386             0             0      0.172907   2.12209e-15      0.248232        102330        103156        250072   3.88806e-15
    0.0403804       289.058        288.46      0.216218       7.37765       1.46451             0        4.6072       2.43018             0       59.2201       7.32465             0       26.9926             0             0      0.172821   2.12512e-15      0.248606        102330        103157        249945   3.89361e-15
    0.0405506       289.053       288.459      0.212136       7.68779       1.19879             0       4.64656       2.41739             0       59.5166       7.54863             0       26.3465             0             0      0.172735   2.12814e-15       0.24898        102331        103159        249819   3.89916e-15
    0.0407207       289.048       288.458      0.208054       7.99793      0.933074             0       4.68591       2.40459             0       59.8131       7.77262             0       25.7005             0             0      0.172649   2.13117e-15      0.249354        102332        103160        249692    3.9047e-15
    0.0408909       289.043       288.457      0.203973       8.30807      0.667357             0       4.72526       2.39179             0       60.1096        7.9966             0       25.0545             0             0      0.172563    2.1342e-15      0.249728        102332        103161        249565   3.91025e-15
    0.0410611       289.031       288.456      0.200245       8.60223      0.428013             0       4.76403       2.37745             0       60.3553       8.20314             0       24.4067             0             0      0.172586    2.1374e-15      0.249624        102333        103163        249468   3.91611e-15
    0.0412312       289.006       288.455      0.197152       8.86782      0.235795             0       4.80177       2.36034             0       60.5102       8.37849             0       23.7559             0             0      0.172807   2.14091e-15      0.248666        102335        103164        249426   3.92255e-15
    0.0414014       288.981       288.453      0.194059       9.13342     0.0435767             0        4.8395       2.34323             0       60.6651       8.55384             0        23.105             0             0      0.173027   2.14443e-15      0.247709        102336        103165        249383   3.92899e-15
    0.0415716       288.955       288.452      0.190965       9.39901     -0.148641             0       4.87724       2.32613             0         60.82       8.72919             0       22.4541             0             0      0.173247   2.14794e-15      0.246751        102338        103167        249340   3.93543e-15
    0.0417417        288.93       288.451      0.187872       9.66461     -0.340859             0       4.91497       2.30902             0       60.9749       8.90454             0       21.8032             0             0      0.173468   2.15146e-15      0.245793        102339        103168        249297   3.94187e-15
    0.0419119       288.905        288.45      0.184779        9.9302     -0.533077             0       4.95271       2.29191             0       61.1298       9.07989             0       21.1524             0             0      0.173688   2.15497e-15      0.244836        102341        103169        249255   3.94831e-15
    0.0420821       288.864       288.448      0.182307       10.1225     -0.652282             0       4.98741       2.27349             0       61.2515       9.19959             0       20.5121             0             0      0.174148   2.14715e-15      0.242836        102342        103171        249244   3.93398e-15
    0.0422523       288.805       288.446      0.180502       10.2362      -0.69313             0       5.01887       2.25364             0       61.3375       9.25956             0       19.8833             0             0      0.174865   2.12717e-15      0.239719        102344        103172        249267   3.89737e-15
    0.0424224       288.747       288.444      0.178697       10.3498     -0.733978             0       5.05032       2.23379             0       61.4235       9.31954             0       19.2545             0             0      0.175582   2.10719e-15      0.236601        102346        103173        249290   3.86076e-15
    0.0425926       288.688       288.442      0.176891       10.4635     -0.774827             0       5.08177       2.21394             0       61.5095       9.37951             0       18.6256             0             0      0.176299    2.0872e-15      0.233484        102348        103175        249313   3.82414e-15
    0.0427628        288.63        288.44      0.175086       10.5772     -0.815675             0       5.11323        2.1941             0       61.5955       9.43949             0       17.9968             0             0      0.177016   2.06722e-15      0.230366        102350        103176        249336   3.78753e-15
    0.0429329       288.572       288.438      0.173281       10.6908     -0.856523             0       5.14468       2.17425             0       61.6816       9.49947             0        17.368             0             0      0.177733   2.04724e-15      0.227248        102352        103177        249359   3.75092e-15
    0.0431031       288.503       288.436      0.172376       10.6897     -0.800753             0       5.16924       2.15205             0       61.6984       9.48088             0       16.7531             0             0      0.178669   2.00177e-15       0.22318        102354        103178        249423   3.66761e-15
    0.0432733       288.428       288.433      0.172055       10.6138     -0.682133             0        5.1893       2.12832             0       61.6702        9.4112             0       16.1473             0             0      0.179747   1.93972e-15      0.218492        102356        103180        249512   3.55392e-15
    0.0434434       288.352        288.43      0.171735       10.5379     -0.563514             0       5.20937       2.10459             0        61.642       9.34151             0       15.5415             0             0      0.180825   1.87767e-15      0.213804        102358        103181        249602   3.44024e-15
    0.0436136       288.277       288.428      0.171414        10.462     -0.444894             0       5.22943       2.08086             0       61.6139       9.27182             0       14.9357             0             0      0.181903   1.81562e-15      0.209116        102360        103182        249691   3.32655e-15
    0.0437838       288.202       288.425      0.171094       10.3861     -0.326274             0        5.2495       2.05713             0       61.5857       9.20214             0       14.3299             0             0      0.182981   1.75357e-15      0.204429        102362        103183        249780   3.21287e-15
     0.043954       288.127       288.422      0.170773       10.3103     -0.207655             0       5.26956        2.0334             0       61.5575       9.13245             0       13.7241             0             0       0.18406   1.69152e-15      0.199741        102364        103185        249870   3.09918e-15
    0.0441241       288.068       288.419      0.171184       10.1851    -0.0690678             0       5.28137       2.00341             0       61.3398       8.98787             0       13.1364             0             0      0.184947   1.62066e-15      0.195881        102366        103186        250012   2.96935e-15
    0.0442943       288.016       288.415      0.171867       10.0417     0.0769263             0        5.2901        1.9711             0       61.0519       8.81551             0       12.5554             0             0      0.185765   1.54653e-15      0.192327        102368        103187        250173   2.83354e-15
    0.0444645       287.964       288.411      0.172549       9.89827       0.22292             0       5.29884        1.9388             0       60.7639       8.64315             0       11.9744             0             0      0.186582   1.47241e-15      0.188774        102369        103188        250334   2.69772e-15
    0.0446346       287.912       288.408      0.173232       9.75485      0.368914             0       5.30757       1.90649             0       60.4759       8.47079             0       11.3934             0             0      0.187399   1.39828e-15      0.185221        102371        103190        250495   2.56191e-15
    0.0448048        287.86       288.404      0.173914       9.61142      0.514909             0       5.31631       1.87418             0       60.1879       8.29842             0       10.8124             0             0      0.188216   1.32415e-15      0.181668        102372        103191        250656    2.4261e-15
     0.044975       287.808         288.4      0.174597         9.468      0.660903             0       5.32504       1.84187             0       59.8999       8.12606             0       10.2314             0             0      0.189034   1.25003e-15      0.178114        102374        103192        250817   2.29028e-15
    0.0451451       287.786       288.395      0.175708       9.39909      0.722976             0       5.32525       1.79844             0        59.345       7.88333             0       9.68867             0             0      0.189313   1.20156e-15      0.176899        102375        103193        251016   2.20148e-15
    0.0453153        287.77       288.391      0.176894       9.34304       0.77058             0         5.324       1.75308             0        58.744       7.62847             0        9.1525             0             0        0.1895   1.15751e-15      0.176087        102376        103194        251221   2.12078e-15
    0.0454855       287.753       288.386      0.178079       9.28698      0.818184             0       5.32275       1.70773             0        58.143        7.3736             0       8.61633             0             0      0.189687   1.11347e-15      0.175274        102377        103195        251427   2.04008e-15