#           y             T         TMean   TPrime2Mean           U_x           U_y           U_z       UMean_x       UMean_y       UMean_z UPrime2Mea... UPrime2Mea... UPrime2Mea... UPrime2Mea... UPrime2Mea... UPrime2Mea...            O2           H2O          C3H8             p         pMean   pPrime2Mean           CO2
         0.02       296.906       290.838       190.433       27.7348     -0.666446             0       21.6825     -0.785926             0       40.3336      -2.55052             0       19.8109             0             0      0.218101   2.75233e-09     0.0517364        102081        103088        201524   5.04278e-09
    0.0201677       295.683       290.611       169.356       27.9274     -0.617872             0       21.7139     -0.763384             0       40.1498      -1.72711             0       20.1758             0             0      0.219353   2.32759e-09     0.0462925        102075        103088        202042   4.26459e-09
    0.0203353        294.46       290.384        148.28       28.1199     -0.569298             0       21.7453     -0.740842             0       39.9659     -0.903705             0       20.5406             0             0      0.220605   1.90286e-09     0.0408485        102070        103087        202560   3.48639e-09
     0.020503       293.237       290.157       127.203       28.3125     -0.520723             0       21.7767     -0.718301             0       39.7821    -0.0802996             0       20.9055             0             0      0.221857   1.47812e-09     0.0354046        102064        103087        203077   2.70819e-09
    0.0206707       292.013       289.931       106.127        28.505     -0.472149             0       21.8081     -0.695759             0       39.5982      0.743106             0       21.2703             0             0      0.223109   1.05338e-09     0.0299607        102059        103086        203595   1.92999e-09
    0.0208383        290.79       289.704       85.0505       28.6976     -0.423575             0       21.8394     -0.673217             0       39.4144       1.56651             0       21.6351             0             0      0.224361   6.28642e-10     0.0245168        102053        103086        204113   1.15179e-09
     0.021006       289.601       289.481       64.4593        28.885     -0.376656             0       21.8652     -0.650285             0       39.2393       2.39466             0       22.0015             0             0      0.225573   2.17931e-10     0.0192473        102047        103085        204632   3.99291e-10
    0.0211737       289.315       289.361       56.9287       28.9318     -0.374303             0       21.7393     -0.616847             0       39.3015       3.35059             0        22.409             0             0      0.225705   1.84799e-10     0.0186732        102040        103085        205171   3.38586e-10
    0.0213413        289.03       289.242        49.398       28.9787     -0.371949             0       21.6134      -0.58341             0       39.3638       4.30651             0       22.8165             0             0      0.225837   1.51667e-10      0.018099        102033        103084        205710   2.77881e-10
     0.021509       288.744       289.123       41.8674       29.0255     -0.369595             0       21.4875     -0.549972             0        39.426       5.26244             0        23.224             0             0      0.225969   1.18534e-10     0.0175249        102026        103084        206248   2.17177e-10
    0.0216767       288.459       289.003       34.3368       29.0724     -0.367242             0       21.3616     -0.516534             0       39.4882       6.21837             0       23.6315             0             0      0.226101   8.54018e-11     0.0169507        102019        103083        206787   1.56472e-10
    0.0218443       288.174       288.884       26.8062       29.1193     -0.364888             0       21.2357     -0.483096             0       39.5504       7.17429             0       24.0389             0             0      0.226233   5.22694e-11     0.0163766        102011        103082        207326   9.57672e-11
     0.022012       287.907       288.769       19.6357        29.136     -0.368226             0       21.0988     -0.450913             0       39.6122        8.1238             0       24.4513             0             0      0.226332   2.13382e-11     0.0159488        102004        103082        207870   3.90955e-11
    0.0221797       287.878       288.711       17.1314       28.7622     -0.445318             0       20.8186     -0.434978             0       39.6679       8.99015             0       24.9271             0             0      0.225994   1.89307e-11     0.0174168        101997        103081        208481   3.46846e-11
    0.0223473       287.849       288.653       14.6271       28.3884      -0.52241             0       20.5385     -0.419044             0       39.7236        9.8565             0       25.4029             0             0      0.225656   1.65233e-11     0.0188849        101989        103081        209093   3.02737e-11
     0.022515       287.821       288.594       12.1228       28.0146     -0.599503             0       20.2583     -0.403109             0       39.7793       10.7228             0       25.8786             0             0      0.225319   1.41158e-11     0.0203529        101982        103080        209704   2.58628e-11
    0.0226827       287.792       288.536       9.61857       27.6409     -0.676595             0       19.9782     -0.387175             0        39.835       11.5892             0       26.3544             0             0      0.224981   1.17084e-11     0.0218209        101974        103080        210315   2.14519e-11
    0.0228504       287.763       288.478       7.11429       27.2671     -0.753687             0        19.698     -0.371241             0       39.8906       12.4555             0       26.8302             0             0      0.224644   9.30092e-12      0.023289        101966        103079        210926    1.7041e-11
     0.023018       287.739       288.424       4.80905       26.8513     -0.837653             0       19.4058     -0.358877             0        39.916       13.2921             0         27.33             0             0      0.224309   7.06574e-12     0.0247424        101959        103079        211546   1.29458e-11
    0.0231857       287.747       288.402       4.15691       26.0866     -0.978717             0       19.0132     -0.376167             0       39.6897       13.8807             0       28.0301             0             0      0.224003   6.26142e-12     0.0260742        101952        103078        212247   1.14721e-11
    0.0233534       287.755        288.38       3.50476        25.322      -1.11978             0       18.6207     -0.393457             0       39.4634       14.4694             0       28.7301             0             0      0.223697   5.45709e-12     0.0274061        101946        103078        212948   9.99841e-12
     0.023521       287.764       288.358       2.85261       24.5573      -1.26084             0       18.2281     -0.410747             0       39.2371        15.058             0       29.4301             0             0       0.22339   4.65276e-12     0.0287379        101939        103077        213648   8.52473e-12
    0.0236887       287.772       288.336       2.20046       23.7926      -1.40191             0       17.8355     -0.428038             0       39.0108       15.6466             0       30.1301             0             0      0.223084   3.84843e-12     0.0300698        101932        103077        214349   7.05105e-12
    0.0238564       287.781       288.314       1.54831        23.028      -1.54297             0        17.443     -0.445328             0       38.7844       16.2353             0       30.8302             0             0      0.222778   3.04411e-12     0.0314016        101925        103076        215050   5.57737e-12
     0.024024        287.79       288.295      0.971284       22.2248      -1.69118             0         17.05     -0.468643             0        38.579       16.7704             0       31.5634             0             0      0.222504   2.31483e-12     0.0325931        101919        103076        215761   4.24119e-12
    0.0241917       287.803       288.291      0.843423       21.1914      -1.88214             0       16.6548     -0.527986             0       38.4985       16.9851             0       32.4947             0             0      0.222423   2.03425e-12     0.0329452        101914        103075        216534   3.72713e-12
    0.0243594       287.815       288.288      0.715563       20.1579       -2.0731             0       16.2595     -0.587329             0       38.4179       17.1998             0       33.4261             0             0      0.222342   1.75368e-12     0.0332972        101910        103075        217307   3.21308e-12
     0.024527       287.828       288.285      0.587702       19.1245      -2.26406             0       15.8642     -0.646672             0       38.3374       17.4146             0       34.3575             0             0      0.222261   1.47311e-12     0.0336493        101905        103074        218080   2.69902e-12
    0.0246947       287.841       288.281      0.459841        18.091      -2.45502             0       15.4689     -0.706015             0       38.2569       17.6293             0       35.2889             0             0       0.22218   1.19254e-12     0.0340014        101900        103073        218853   2.18496e-12
    0.0248624       287.854       288.278      0.331981       17.0576      -2.64598             0       15.0736     -0.765358             0       38.1763        17.844             0       36.2203             0             0      0.222099   9.11971e-13     0.0343535        101896        103073        219626    1.6709e-12
      0.02503       287.866       288.275      0.223883        15.997       -2.8424             0       14.6942     -0.830916             0       38.0718       18.0214             0       37.1885             0             0      0.222032   6.88881e-13     0.0346425        101891        103072        220412   1.26216e-12
    0.0251977       287.878       288.278      0.206367       14.8122      -3.06379             0       14.3875     -0.924962             0       37.8576       18.0273             0        38.325             0             0      0.222032   7.29248e-13     0.0346422        101889        103071        221260   1.33612e-12
    0.0253654       287.889       288.281       0.18885       13.6274      -3.28518             0       14.0808      -1.01901             0       37.6434       18.0333             0       39.4614             0             0      0.222032   7.69615e-13     0.0346419        101886        103070        222108   1.41008e-12
     0.025533         287.9       288.284      0.171334       12.4425      -3.50658             0       13.7741      -1.11305             0       37.4292       18.0392             0       40.5979             0             0      0.222032   8.09981e-13     0.0346416        101884        103069        222955   1.48404e-12
    0.0257007       287.912       288.287      0.153817       11.2577      -3.72797             0       13.4674       -1.2071             0       37.2149       18.0451             0       41.7344             0             0      0.222032   8.50348e-13     0.0346413        101881        103068        223803     1.558e-12
    0.0258684       287.923        288.29      0.136301       10.0728      -3.94937             0       13.1607      -1.30114             0       37.0007       18.0511             0       42.8709             0             0      0.222033   8.90715e-13      0.034641        101879        103067        224651   1.63196e-12
     0.026036       287.934       288.293      0.122231       8.89159      -4.17887             0       12.8651      -1.39935             0       36.6736       18.0247             0       44.0407             0             0      0.221976   9.59386e-13     0.0348863        101877        103066        225523   1.75777e-12
    0.0262037       287.943       288.295       0.12075       7.72359        -4.438             0       12.6098      -1.51276             0        35.934         17.88             0       45.3322             0             0      0.221713   1.13145e-12     0.0360283        101877        103065        226486   2.07303e-12
    0.0263714       287.953       288.297      0.119269        6.5556      -4.69713             0       12.3544      -1.62617             0       35.1944       17.7354             0       46.6237             0             0      0.221451   1.30352e-12     0.0371704        101877        103064        227448   2.38828e-12
     0.026539       287.962       288.299      0.117789       5.38761      -4.95626             0       12.0991      -1.73957             0       34.4548       17.5908             0       47.9151             0             0      0.221188   1.47558e-12     0.0383125        101877        103062        228411   2.70354e-12
    0.0267067       287.972       288.301      0.116308       4.21961      -5.21539             0       11.8438      -1.85298             0       33.7152       17.4461             0       49.2066             0             0      0.220925   1.64764e-12     0.0394546        101877        103061        229373   3.01879e-12
    0.0268744       287.981       288.303      0.114827       3.05162      -5.47452             0       11.5885      -1.96639             0       32.9756       17.3015             0       50.4981             0             0      0.220663   1.81971e-12     0.0405967        101878        103060        230335   3.33404e-12
     0.027042       287.989       288.305      0.113759        1.9501      -5.73231             0       11.3256      -2.08157             0       32.2239        17.108             0       51.8149             0             0      0.220293   1.99319e-12     0.0422039        101878        103059        231312    3.6519e-12
    0.0272097       287.995       288.306      0.113925       1.04723      -5.98613             0       11.0399      -2.20206             0       31.4359       16.7687             0       53.2075             0             0      0.219604   2.17093e-12     0.0452008        101879        103057        232329   3.97754e-12
    0.0273774       288.001       288.307      0.114091      0.144362      -6.23995             0       10.7542      -2.32255             0       30.6479       16.4293             0          54.6             0             0      0.218915   2.34866e-12     0.0481977        101881        103055        233346   4.30319e-12
     0.027545       288.007       288.307      0.114257     -0.758508      -6.49377             0       10.4685      -2.44303             0       29.8599         16.09             0       55.9926             0             0      0.218225   2.52639e-12     0.0511946        101882        103054        234363   4.62883e-12
    0.0277127       288.013       288.308      0.114423      -1.66138      -6.74758             0       10.1828      -2.56352             0       29.0719       15.7506             0       57.3851             0             0      0.217536   2.70413e-12     0.0541915        101884        103052        235381   4.95447e-12
    0.0278804       288.019       288.309      0.114589      -2.56425       -7.0014             0       9.89708      -2.68401             0       28.2838       15.4113             0       58.7777             0             0      0.216847   2.88186e-12     0.0571884        101885        103051        236398   5.28011e-12
     0.028048       288.021        288.31      0.114797      -3.34323      -7.23824             0       9.60628      -2.80709             0        27.532       15.0259             0       60.1524             0             0      0.215924   2.98522e-12     0.0611978        101886        103049        237388   5.46949e-12
    0.0282157        288.01       288.311       0.11511      -3.81378       -7.4328             0       9.30278      -2.93663             0       26.8701        14.526             0       61.4824             0             0      0.214423   2.90343e-12     0.0677279        101888        103047        238312   5.31963e-12
    0.0283834           288       288.311      0.115423      -4.28432      -7.62736             0       8.99928      -3.06618             0       26.2082        14.026             0       62.8124             0             0      0.212921   2.82164e-12     0.0742581        101890        103046        239237   5.16977e-12
    0.0285511       287.989       288.312      0.115736      -4.75487      -7.82193             0       8.69578      -3.19572             0       25.5463        13.526             0       64.1425             0             0      0.211419   2.73985e-12     0.0807882        101892        103044        240161   5.01991e-12
    0.0287187       287.979       288.313      0.116049      -5.22542      -8.01649             0       8.39228      -3.32526             0       24.8845       13.0261             0       65.4725             0             0      0.209917   2.65806e-12     0.0873183        101894        103042        241085   4.87006e-12
    0.0288864       287.969       288.314      0.116362      -5.69597      -8.21105             0       8.08878      -3.45481             0       24.2226       12.5261             0       66.8026             0             0      0.208415   2.57627e-12     0.0938484        101895        103041        242009    4.7202e-12
    0.0290541       287.953       288.315      0.116655      -6.03201      -8.38884             0        7.7862      -3.58621             0       23.6013       11.9882             0        68.045             0             0      0.206947   2.43484e-12       0.10023        101897        103039        242856   4.46108e-12
    0.0292217       287.924       288.315      0.116904      -6.08535      -8.53136             0       7.48555      -3.72153             0       23.0654       11.3707             0       69.1032             0             0      0.205551   2.16807e-12      0.106298        101898        103037        243541    3.9723e-12
    0.0293894       287.895       288.316      0.117154       -6.1387      -8.67388             0       7.18491      -3.85684             0       22.5294       10.7531             0       70.1614             0             0      0.204156   1.90129e-12      0.112366        101899        103036        244225   3.48352e-12
    0.0295571       287.866       288.316      0.117403      -6.19204       -8.8164             0       6.88426      -3.99215             0       21.9935       10.1355             0       71.2196             0             0       0.20276   1.63452e-12      0.118435        101900        103034        244910   2.99474e-12
    0.0297247       287.838       288.317      0.117653      -6.24538      -8.95892             0       6.58361      -4.12747             0       21.4576       9.51794             0       72.2779             0             0      0.201364   1.36774e-12      0.124503        101901        103033        245595   2.50596e-12
    0.0298924       287.809       288.317      0.117903      -6.29872      -9.10145             0       6.28296      -4.26278             0       20.9217       8.90037             0       73.3361             0             0      0.199969   1.10097e-12      0.130571        101902        103031        246280   2.01719e-12
    0.0300601       287.781       288.317      0.118166      -6.31528      -9.24123             0       5.98727      -4.39788             0       20.4652       8.26148             0       74.2497             0             0      0.198896   8.79086e-13      0.135235        101903        103030        246850   1.61065e-12
    0.0302277       287.755       288.317      0.118455      -6.26593       -9.3761             0       5.70047       -4.5326             0       20.1512       7.58439             0       74.9043             0             0      0.198402   7.37624e-13      0.137381        101903        103028        247214   1.35146e-12
    0.0303954       287.729       288.316      0.118744      -6.21658      -9.51097             0       5.41366      -4.66732             0       19.8372        6.9073             0       75.5588             0             0      0.197909   5.96162e-13      0.139528        101903        103027        247578   1.09228e-12
    0.0305631       287.702       288.316      0.119033      -6.16723      -9.64585             0       5.12686      -4.80204             0       19.5232       6.23022             0       76.2134             0             0      0.197415   4.54701e-13      0.141675        101904        103026        247943   8.33096e-13
    0.0307307       287.676       288.316      0.119323      -6.11787      -9.78072             0       4.84006      -4.93676             0       19.2092       5.55313             0        76.868             0             0      0.196921   3.13239e-13      0.143822        101904        103025        248307   5.73912e-13
    0.0308984        287.65       288.316      0.119612      -6.06852       -9.9156             0       4.55325      -5.07148             0       18.8951       4.87604             0       77.5225             0             0      0.196427   1.71777e-13      0.145968        101904        103024        248671   3.14728e-13
    0.0310661       287.628       288.315      0.119891      -6.06845       -10.052             0       4.27332      -5.20288             0       18.6905       4.21239             0       78.0131             0             0      0.196041   8.08892e-14      0.147646        101904        103022        248930   1.48204e-13
    0.0312337       287.615       288.315      0.120157      -6.14415      -10.1907             0       4.00396      -5.32917             0        18.654       3.56941             0       78.2514             0             0      0.195822   6.77775e-14      0.148601        101903        103022        249026   1.24181e-13
    0.0314014       287.601       288.315      0.120423      -6.21986      -10.3295             0        3.7346      -5.45547             0       18.6175       2.92642             0       78.4897             0             0      0.195602   5.46658e-14      0.149557        101903        103021        249122   1.00158e-13
    0.0315691       287.587       288.315      0.120688      -6.29557      -10.4682             0       3.46525      -5.58176             0       18.5811       2.28344             0        78.728             0             0      0.195382   4.15542e-14      0.150512        101903        103020        249219    7.6135e-14
    0.0317367       287.573       288.315      0.120954      -6.37128      -10.6069             0       3.19589      -5.70806             0       18.5446       1.64046             0       78.9664             0             0      0.195162   2.84425e-14      0.151468        101902        103019        249315    5.2112e-14
    0.0319044        287.56       288.315      0.121219      -6.44698      -10.7457             0       2.92653      -5.83435             0       18.5081      0.997475             0       79.2047             0             0      0.194943   1.53308e-14      0.152423        101902        103018        249411   2.80889e-14
    0.0320721       287.549       288.315      0.121422      -6.53581       -10.871             0       2.66428      -5.95488             0       18.5777      0.400863             0       79.2955             0             0      0.194763   7.37821e-15      0.153204        101901        103017        249423   1.35183e-14
    0.0322397       287.542       288.314       0.12154      -6.64202      -10.9785             0       2.41147      -6.06777             0        18.788     -0.134243             0       79.1906             0             0      0.194637   6.26851e-15      0.153752        101900        103017        249321   1.14851e-14
    0.0324074       287.534       288.314      0.121658      -6.74824       -11.086             0       2.15865      -6.18066             0       18.9983     -0.669349             0       79.0858             0             0      0.194511    5.1588e-15      0.154301        101898        103016        249220   9.45188e-15
    0.0325751       287.527       288.314      0.121776      -6.85445      -11.1935             0       1.90583      -6.29355             0       19.2086      -1.20445             0       78.9809             0             0      0.194385   4.04909e-15      0.154849        101897        103016        249119   7.41869e-15
    0.0327427        287.52       288.313      0.121894      -6.96067       -11.301             0       1.65302      -6.40643             0       19.4189      -1.73956             0        78.876             0             0      0.194258   2.93938e-15      0.155398        101896        103015        249017    5.3855e-15
    0.0329104       287.513       288.313      0.122013      -7.06688      -11.4085             0        1.4002      -6.51932             0       19.6292      -2.27467             0       78.7712             0             0      0.194132   1.82967e-15      0.155946        101895        103015        248916    3.3523e-15
    0.0330781       287.508       288.313      0.122134      -7.16013        -11.49             0       1.15653        -6.625             0       19.8629      -2.70883             0       78.5303             0             0      0.193989   1.20691e-15      0.156569        101893        103014        248776   2.21128e-15
    0.0332457       287.505       288.312      0.122259       -7.2385      -11.5418             0      0.923345      -6.72241             0       20.1233      -3.02715             0       78.1333             0             0      0.193826   1.14288e-15      0.157277        101892        103014        248591   2.09396e-15
    0.0334134       287.502       288.312      0.122384      -7.31686      -11.5935             0      0.690162      -6.81981             0       20.3837      -3.34548             0       77.7364             0             0      0.193663   1.07884e-15      0.157985        101890        103014        248407   1.97664e-15
    0.0335811       287.499       288.311      0.122509      -7.39523      -11.6453             0      0.456979      -6.91721             0        20.644      -3.66381             0       77.3394             0             0      0.193501   1.01481e-15      0.158693        101889        103013        248222   1.85932e-15
    0.0337487       287.496       288.311      0.122634       -7.4736       -11.697             0      0.223796      -7.01462             0       20.9044      -3.98214             0       76.9425             0             0      0.193338   9.50779e-16      0.159401        101887        103013        248037   1.74201e-15
    0.0339164       287.493        288.31      0.122759      -7.55196      -11.7488             0   -0.00938719      -7.11202             0       21.1648      -4.30047             0       76.5455             0             0      0.193175   8.86747e-16      0.160109        101886        103013        247852   1.62469e-15
    0.0340841       287.491        288.31      0.122904      -7.61559      -11.7759             0     -0.230981      -7.20053             0       21.3701      -4.47979             0       76.0283             0             0      0.192941   8.53655e-16      0.161127        101884        103013        247669   1.56405e-15
    0.0342518       287.491       288.309       0.12307      -7.66457      -11.7784             0     -0.441055       -7.2802             0       21.5206      -4.52093             0       75.3913             0             0      0.192636   8.51317e-16      0.162454        101883        103013        247486   1.55977e-15
    0.0344194       287.491       288.309      0.123235      -7.71354      -11.7809             0     -0.651129      -7.35987             0        21.671      -4.56206             0       74.7544             0             0       0.19233    8.4898e-16      0.163781        101881        103013        247303   1.55549e-15
    0.0345871       287.491       288.308        0.1234      -7.76252      -11.7834             0     -0.861203      -7.43953             0       21.8215       -4.6032             0       74.1175             0             0      0.192025   8.46643e-16      0.165108        101879        103013        247120   1.55121e-15
    0.0347548       287.491       288.307      0.123565       -7.8115      -11.7859             0      -1.07128       -7.5192             0        21.972      -4.64433             0       73.4806             0             0       0.19172   8.44305e-16      0.166434        101878        103013        246937   1.54692e-15
    0.0349224       287.491       288.307       0.12373      -7.86048      -11.7884             0      -1.28135      -7.59887             0       22.1224      -4.68547             0       72.8437             0             0      0.191415   8.41968e-16      0.167761        101876        103014        246754   1.54264e-15
    0.0350901       287.491       288.306      0.123958      -7.87933       -11.765             0      -1.48044      -7.66699             0       22.2087       -4.6028             0       72.0974             0             0      0.191126   8.41734e-16      0.169017        101875        103014        246599   1.54221e-15
    0.0352578       287.492       288.306      0.124238      -7.87224      -11.7194             0      -1.67008      -7.72517             0       22.2396      -4.41353             0        71.257             0             0      0.190851   8.43311e-16      0.170213        101873        103014        246467    1.5451e-15