#           y             T         TMean   TPrime2Mean           U_x           U_y           U_z       UMean_x       UMean_y       UMean_z UPrime2Mea... UPrime2Mea... UPrime2Mea... UPrime2Mea... UPrime2Mea... UPrime2Mea...            O2           H2O          C3H8             p         pMean   pPrime2Mean           CO2
  1.11022e-19       288.126       288.087      0.117362       20.9264  -3.71128e-16             0       19.9275  -2.13946e-16             0       22.4369  -9.74709e-17             0   4.54035e-16             0             0       0.22991   4.96854e-12    0.00039161        102279        103139        237599    9.1033e-12
  0.000500501       288.187       288.093      0.120018        20.941      0.102591             0       19.9298     0.0553178             0       22.4838    -0.0545181             0     0.0539875             0             0      0.229815   1.52056e-11   0.000803652        102279        103139        237551   2.78594e-11
     0.001001       288.247       288.098      0.122803       20.9557      0.205163             0       19.9321      0.110636             0       22.5308     -0.109023             0      0.108135             0             0      0.229719   2.56309e-11    0.00121989        102279        103139        237503   4.69606e-11
    0.0015015       288.638       288.128       0.18985       21.0099      0.298762             0       19.9395      0.165956             0       22.6664     -0.157142             0      0.242248             0             0      0.229143   1.30025e-10    0.00372768        102280        103138        237324   2.38231e-10
     0.002002       289.031       288.158       0.25945       21.0642      0.392333             0        19.947      0.221278             0       22.8028     -0.205258             0       0.37679             0             0       0.22856   2.36431e-10     0.0062609        102280        103138        237145   4.33185e-10
    0.0025025       290.272       288.244      0.964636       21.1395      0.479183             0       19.9623      0.276796             0         23.13      -0.25297             0      0.618266             0             0      0.226521   8.43501e-10      0.015125        102281        103138        236866   1.54545e-09
     0.003003       291.521       288.331       1.68375       21.2151      0.565759             0       19.9777      0.332317             0       23.4585      -0.30057             0      0.860481             0             0      0.224473   1.45656e-09     0.0240293        102282        103137        236588    2.6687e-09
    0.0035035       294.253       288.491       4.70986       21.3352      0.606972             0        20.013      0.388472             0       23.9953     -0.329838             0       1.22498             0             0      0.220897   3.06225e-09     0.0395791        102283        103137        236300   5.61061e-09
     0.004004           297        288.65       7.76548       21.4541      0.647952             0       20.0482      0.444653             0       24.5314     -0.358754             0       1.59053             0             0      0.217319   4.67714e-09     0.0551358        102284        103137        236012    8.5694e-09
    0.0045045       301.608       288.847         14.48       21.4383      0.660147             0         20.08       0.50399             0       24.9917     -0.344084             0       2.08569             0             0      0.213543   7.43358e-09     0.0715516        102283        103136        235685   1.36197e-08
   0.00500501       306.222       289.043       21.2039       21.4216      0.672214             0       20.1112      0.563359             0       25.4473     -0.328307             0       2.58183             0             0      0.209776   1.02013e-08     0.0879323        102283        103135        235358   1.86907e-08
   0.00550551       311.461       289.199       28.8527       21.3123      0.671607             0       20.0854      0.625912             0       25.4265     -0.202894             0       3.17542             0             0      0.206806    1.4084e-08      0.100842        102283        103134        235006   2.58045e-08
   0.00600601       316.717       289.354       36.4776       21.2014      0.671752             0       20.0582      0.688537             0       25.3985    -0.0752545             0       3.76906             0             0      0.203845   1.79655e-08      0.113716        102283        103134        234656   3.29161e-08
   0.00650651       323.357        289.43       42.1338       20.9652      0.733795             0       19.9095      0.757067             0       24.7828        0.2357             0       4.36737             0             0      0.201559   2.17454e-08      0.123657        102282        103133        234383   3.98416e-08
   0.00700701        329.99       289.505       47.7268        20.724      0.796721             0       19.7586      0.825652             0       24.1635      0.550137             0         4.965             0             0      0.199272    2.5481e-08        0.1336        102282        103132        234109   4.66859e-08
   0.00750751       336.046       289.506       48.8729       20.1396      0.921712             0       19.4561      0.898183             0       23.2909       1.10982             0       5.51504             0             0      0.196936   2.60996e-08      0.143756        102280        103132        233788   4.78193e-08
   0.00800801       342.007       289.506       49.9168       19.5558       1.04131             0       19.1516      0.970619             0         22.42       1.67039             0       6.06484             0             0      0.194568   2.66639e-08       0.15405        102278        103131        233465   4.88532e-08
   0.00850851       342.184       289.441       44.6762       19.0102      0.828948             0        18.722       1.03727             0       21.6506       2.28587             0       6.60018             0             0      0.190232   2.38935e-08      0.172903        102276        103130        233019   4.37774e-08
   0.00900901       342.279       289.375       39.3983       18.4633      0.613049             0       18.2911       1.10343             0       20.8883        2.8938             0       7.13752             0             0      0.185864   2.10891e-08      0.191896        102275        103129        232572   3.86392e-08
   0.00950951       337.857       289.282       32.0885       17.8505      0.203934             0       17.7873       1.14324             0       20.5063       3.08996             0       7.78403             0             0      0.179732   1.64294e-08      0.218555        102273        103128        232116   3.01018e-08
      0.01001       333.436        289.19       24.8238        17.231     -0.199963             0       17.2838        1.1825             0       20.1475       3.27683             0       8.43449             0             0      0.173641   1.17893e-08      0.245041        102271        103128        231659   2.16002e-08
    0.0105105       329.007       289.102       19.7657       16.2841     -0.348174             0       16.7963       1.19514             0       20.9232       3.00821             0       9.27848             0             0      0.169499   8.10714e-09      0.263048        102270        103126        231173   1.48538e-08
     0.011011       324.605       289.014       14.7558       15.3394     -0.491423             0       16.3095       1.20756             0       21.7387        2.7374             0       10.1248             0             0      0.165427   4.47835e-09      0.280754        102269        103125        230690   8.20517e-09
    0.0115115       321.389       288.929       11.8926       14.4924     -0.414105             0       15.8556       1.21053             0       24.3173       2.36978             0       11.0747             0             0      0.164426   3.22151e-09      0.285104        102268        103124        230328   5.90242e-09
     0.012012       318.184       288.844       9.05887       13.6544     -0.334363             0       15.4016       1.21353             0       26.9292       2.00305             0       12.0253             0             0      0.163443   1.98181e-09      0.289377        102267        103123        229973   3.63105e-09
    0.0125125       315.439        288.77       7.42056       13.1807     -0.156038             0       14.9459       1.21793             0       30.8952        1.6728             0       13.0073             0             0      0.163183   1.43884e-09       0.29051        102266        103121        229914   2.63622e-09
     0.013013       312.733       288.696       5.80392        12.716     0.0215779             0       14.4919       1.22186             0        34.865       1.33765             0       13.9939             0             0      0.162945   9.05234e-10      0.291545        102265        103120        229862   1.65856e-09
    0.0135135       311.476        288.65       4.99891       12.5872      0.172606             0       14.0996       1.20768             0       38.9785      0.818609             0       15.1558             0             0      0.163535   7.22462e-10      0.288979        102264        103118        230088   1.32369e-09
     0.014014       310.246       288.604       4.21326       12.4684      0.323223             0         13.71       1.19295             0       43.0677      0.293463             0       16.3251             0             0      0.164192   5.44246e-10      0.286124        102264        103116        230320    9.9716e-10
    0.0145145       309.913       288.592       4.09953       12.6962       0.45959             0       13.4129       1.15893             0       46.3187     -0.443635             0       17.7524             0             0      0.167147   5.24154e-10      0.273274        102263        103114        230752   9.60349e-10
     0.015015       309.557       288.581       3.99541       12.9339       0.59603             0       13.1167         1.125             0        49.537       -1.1794             0       19.1812             0             0      0.170126   5.08758e-10      0.260323        102263        103112        231192    9.3214e-10
    0.0155155       308.414       288.584       4.20227       13.4905      0.734793             0       12.8529       1.09432             0       51.7027       -1.8721             0       20.6612             0             0      0.173866   6.45186e-10      0.244063        102262        103110        231873    1.1821e-09
     0.016016       307.237       288.587       4.39793       14.0499       0.87196             0       12.5894       1.06432             0        53.837      -2.55886             0       22.1393             0             0      0.177607   7.84299e-10      0.227795        102261        103107        232561   1.43698e-09
    0.0165165       305.049       288.577       4.25515       14.6928      0.960862             0        12.337       1.05476             0       55.0256      -3.06622             0       23.5614             0             0      0.181405   1.00463e-09      0.211282        102260        103106        233485   1.84068e-09
     0.017017       302.852       288.566       4.09568       15.3298       1.04711             0       12.0852       1.04599             0       56.1874      -3.57025             0       24.9831             0             0      0.185199   1.22193e-09      0.194786        102258        103104        234413    2.2388e-09
    0.0175175       300.377       288.538       3.46203       15.7993       1.05787             0        11.846       1.05956             0       56.5916      -3.97975             0       26.3964             0             0      0.188876   1.35278e-09      0.178801        102256        103102        235478   2.47855e-09
     0.018018       297.918        288.51       2.82542       16.2576       1.06785             0       11.6067       1.07398             0       56.9661      -4.38899             0       27.8111             0             0       0.19255     1.474e-09      0.162827        102254        103100        236546   2.70064e-09
    0.0185185       295.901       288.475       2.10959       16.4137       1.05655             0       11.3619       1.11148             0       56.5438      -4.79161             0       29.2629             0             0       0.19616   1.33719e-09      0.147131        102251        103098        237700   2.44998e-09
     0.019019       293.899        288.44       1.40517        16.555       1.04718             0       11.1163       1.14983             0       56.0843       -5.1925             0       30.7148             0             0      0.199757   1.19445e-09       0.13149        102249        103097        238854   2.18846e-09
    0.0195195       292.277       288.412      0.989431        16.321       1.08671             0       10.8518       1.20989             0       54.6791      -5.54958             0       32.1706             0             0      0.203036   9.01497e-10      0.117235        102247        103095        239991   1.65171e-09
      0.02002        290.68       288.385      0.585872       16.0776       1.13012             0       10.5869       1.27097             0        53.245      -5.90159             0       33.6244             0             0      0.206252   6.12685e-10      0.103253        102246        103093        241125   1.12255e-09
    0.0205205       289.708       288.374      0.474668       15.6092       1.26671             0       10.3129       1.35662             0       51.1166      -6.13198             0       35.0301             0             0       0.20796   4.23293e-10     0.0958268        102247        103092        242213   7.75552e-10
     0.021021       288.765       288.363      0.367709       15.1452       1.40644             0       10.0397       1.44339             0       48.9843      -6.35329             0       36.4337             0             0       0.20961   2.38884e-10     0.0886543        102247        103090        243296    4.3768e-10
    0.0215215       288.471       288.365      0.357599       14.7812       1.61783             0       9.78246       1.55547             0       46.7606      -6.36771             0       37.7903             0             0      0.209928   1.68125e-10     0.0872677        102249        103089        244272   3.08036e-10
     0.022022       288.187       288.367         0.348       14.4269        1.8315             0       9.52708       1.66871             0       44.5467      -6.37186             0       39.1452             0             0      0.210206   9.93527e-11     0.0860623        102250        103088        245243   1.82033e-10
    0.0225225       288.106       288.372      0.349495        14.281       2.09452             0       9.31163       1.80716             0       42.5439      -6.15258             0       40.4635             0             0      0.209577   7.37669e-11     0.0887939        102252        103087        246076   1.35155e-10
     0.023023       288.028       288.376      0.351074       14.1412       2.35882             0       9.09828        1.9466             0       40.5421      -5.92396             0       41.7821             0             0      0.208938   4.87718e-11     0.0915757        102253        103086        246902    8.9359e-11
    0.0235235       287.997       288.379      0.354407       14.1287       2.64973             0       8.92842       2.10661             0        38.562      -5.50179             0       43.1073             0             0      0.208058   3.60267e-11     0.0953987        102254        103086        247560   6.60076e-11
     0.024024       287.967       288.381       0.35761       14.1185       2.94115             0       8.76001       2.26764             0       36.5756      -5.06724             0       44.4334             0             0       0.20719   2.36353e-11     0.0991723        102255        103085        248209   4.33042e-11
    0.0245245       287.959        288.38      0.358246       14.1565       3.24274             0       8.62044       2.44899             0       34.4654      -4.38699             0        45.778             0             0      0.206547    1.8258e-11      0.101968        102255        103084        248686    3.3452e-11
     0.025025        287.95        288.38      0.358758       14.1949       3.54298             0       8.48178       2.63147             0       32.3602      -3.68889             0       47.1238             0             0      0.205914   1.30111e-11       0.10472        102255        103084        249148   2.38388e-11
    0.0255255       287.944       288.376      0.356894       14.2429       3.81758             0       8.36057       2.83528             0       30.3482      -2.65151             0       48.4926             0             0      0.205475   1.02412e-11      0.106629        102255        103083        249324   1.87638e-11
     0.026026       287.939       288.372      0.355022       14.2925       4.09107             0       8.24013       3.04017             0       28.3646      -1.59353             0       49.8647             0             0      0.205045   7.52913e-12      0.108499        102255        103083        249481   1.37948e-11
    0.0265265       287.935       288.364      0.353007       14.3705       4.34417             0       8.13396       3.26474             0       26.8989     -0.159693             0       51.2956             0             0      0.204775   5.87009e-12      0.109676        102254        103083        249301   1.07551e-11
     0.027027       287.932       288.357      0.350987         14.45       4.59814             0         8.028       3.49009             0       25.4794       1.29396             0       52.7286             0             0       0.20451   4.24349e-12      0.110828        102254        103083        249103   7.77486e-12
    0.0275275       287.934       288.348      0.348885       14.5558       4.86706             0       7.92574       3.72892             0       24.8709       3.09484             0       54.1966             0             0      0.204341   3.18504e-12      0.111561        102253        103083        248594   5.83559e-12
     0.028028       287.935       288.339      0.346707       14.6622       5.13916             0       7.82285       3.96807             0       24.3082       4.90858             0       55.6572             0             0      0.204178   2.15417e-12      0.112269        102253        103083        248067   3.94683e-12
    0.0285285       287.938        288.33      0.343249        14.778       5.46461             0       7.70939       4.21267             0       24.5195         6.939             0        56.994             0             0       0.20411   1.58811e-12      0.112564        102254        103084        247213   2.90972e-12
     0.029029       287.942       288.322      0.339682       14.8911       5.79511             0       7.59495       4.45728             0       24.7646       8.96939             0       58.3136             0             0      0.204047   1.04281e-12      0.112837        102254        103084        246350   1.91062e-12
    0.0295295       287.946       288.316      0.334363       14.9605       6.20757             0       7.46473       4.70187             0        25.557       10.9992             0       59.3526             0             0      0.204062   8.34534e-13      0.112774        102255        103085        245325   1.52902e-12
      0.03003        287.95        288.31      0.329009       15.0221       6.62557             0       7.33391       4.94633             0       26.3721       13.0165             0       60.3723             0             0      0.204078   6.30519e-13      0.112704        102256        103086        244293   1.15523e-12
    0.0305305       287.959       288.306       0.32312       14.9597       7.13025             0       7.19365       5.18874             0       27.5413       14.8359             0       61.0883             0             0      0.204117   4.93247e-13      0.112534        102257        103086        243151   9.03721e-13
     0.031031       287.969       288.302      0.317252       14.8842       7.63885             0       7.05323       5.43081             0       28.7287       16.6352             0       61.7886             0             0      0.204156   3.58889e-13      0.112366        102258        103087        242009   6.57552e-13
    0.0315315       287.986       288.298      0.311708       14.6096       8.20662             0       6.91049       5.66777             0       30.1893       18.1296             0       62.2497             0             0      0.204187   2.68604e-13      0.112229        102259        103088        240860   4.92133e-13
     0.032032       288.003       288.294      0.306238       14.3197       8.77513             0       6.76766       5.90391             0       31.6676       19.6004             0       62.6976             0             0      0.204217   1.80981e-13      0.112099        102260        103090        239720    3.3159e-13
    0.0325325       288.024        288.29       0.30184       13.8051       9.35457             0       6.62348       6.12817             0       33.4026       20.7257             0        62.954             0             0      0.204223   1.32283e-13      0.112073        102259        103091        238710   2.42368e-13
     0.033033       288.043       288.285       0.29762       13.2765       9.93106             0       6.47898       6.35088             0       35.1509       21.8235             0        63.195             0             0      0.204231   8.52391e-14      0.112039        102258        103093        237710   1.56174e-13
    0.0335335       288.057       288.279      0.295917       12.5503       10.4659             0       6.32998       6.55163             0       37.0866       22.5326             0       63.2195             0             0      0.204267   6.15878e-14      0.111883        102256        103094        236839    1.1284e-13
     0.034034        288.07       288.274      0.294418       11.8136       10.9948             0       6.18027       6.74996             0       39.0254       23.2084             0       63.2217             0             0       0.20431    3.8775e-14      0.111695        102254        103096        235981   7.10431e-14
    0.0345345       288.071       288.268      0.295704        10.933       11.4429             0       6.02072       6.91507             0       41.0069       23.4275             0       62.9193             0             0      0.204451   2.74568e-14      0.111081        102250        103098        235297    5.0306e-14
     0.035035        288.07       288.262      0.297092        10.045       11.8841             0        5.8598       7.07681             0       42.9815       23.6087             0       62.5873             0             0      0.204595   1.65824e-14      0.110455        102247        103100        234629   3.03821e-14
    0.0355355       288.049       288.258      0.299826       9.05752       12.2337             0       5.68058       7.19389             0       44.8656       23.2878             0       61.8621             0             0      0.204777   1.16047e-14      0.109663        102242        103103        234180   2.12619e-14
     0.036036       288.026       288.253       0.30247       8.06584       12.5763             0       5.49915       7.30679             0       46.7385       22.9284             0       61.1018             0             0       0.20495   6.86648e-15      0.108912        102238        103105        233745   1.25807e-14
    0.0365365       287.979       288.251      0.303955       7.01961       12.8275             0       5.28914       7.36604             0       48.4661       22.0739             0       59.8897             0             0      0.205005   5.21637e-15      0.108674        102234        103108        233485   9.55735e-15
     0.037037        287.93       288.249      0.305277       5.97633       13.0676             0       5.07625       7.42065             0       50.1819       21.1842             0       58.6396             0             0      0.205036   3.65867e-15      0.108538        102231        103112        233236   6.70337e-15
    0.0375375       287.851       288.249      0.304559       4.97008       13.1696             0       4.82724       7.41713             0       51.7505        19.855             0       56.9133             0             0      0.204773   3.25752e-15      0.109684        102228        103115        233118   5.96838e-15
     0.038038       287.771       288.249       0.30373       3.97375       13.2547             0       4.57478       7.40892             0        53.312       18.5002             0       55.1498             0             0      0.204416   2.89908e-15      0.111233        102226        103118        233013   5.31166e-15
    0.0385385        287.67       288.249      0.301558       3.09795        13.135             0       4.28049        7.3436             0       54.7872       16.8341             0       52.9336             0             0      0.202931      3.06e-15      0.117692        102226        103122        233062   5.60649e-15
     0.039039       287.573       288.249      0.299181       2.22663       13.0033             0        3.9826       7.27366             0       56.2601        15.155             0       50.6864             0             0      0.201227   3.25525e-15      0.125098        102226        103126        233122   5.96422e-15
    0.0395395       287.521        288.25      0.294387       1.40816       12.7301             0       3.64211       7.14933             0        57.706       13.3233             0       48.0743             0             0      0.196949   3.85631e-15      0.143698        102228        103130        233332   7.06548e-15
      0.04004       287.477       288.251      0.289288      0.580241       12.4611             0       3.29916       7.02025             0       59.1348       11.4849             0       45.4429             0             0      0.192573   4.47094e-15      0.162727        102231        103135        233553   8.19159e-15
    0.0405405       287.511       288.254      0.280691      -0.35624       12.2402             0       2.92803        6.8367             0       60.3662       9.56893             0       42.5899             0             0      0.187064   5.24148e-15       0.18668        102236        103139        233898   9.60337e-15
     0.041041       287.548       288.257      0.271944      -1.29602       12.0299             0       2.55676       6.64832             0        61.544       7.64814             0       39.7248             0             0      0.181734   5.99054e-15      0.209853        102242        103144        234247   1.09758e-14
    0.0415415       287.606       288.261      0.261529      -2.27273       11.9369             0       2.18405       6.40584             0       62.1211       5.67308             0       36.7236             0             0      0.178413   6.49909e-15      0.224293        102251        103149        234634   1.19075e-14
     0.042042       287.666       288.266      0.251115      -3.23258       11.8426             0       1.81287       6.15883             0       62.6314       3.70238             0       33.7143             0             0      0.175253   6.98478e-15      0.238032        102261        103154        235024   1.27974e-14
    0.0425425       287.737       288.273      0.240716      -4.00862       11.7334             0       1.45836       5.86242             0       62.4129       1.77914             0       30.6166             0             0      0.173848   7.22129e-15      0.244139        102273        103158        235442   1.32307e-14
     0.043043       287.812       288.279      0.230296      -4.76383       11.6059             0       1.10514       5.56253             0       62.1662     -0.126065             0        27.521             0             0      0.172487   7.43508e-15      0.250057        102286        103163        235869   1.36224e-14
    0.0435435        287.93        288.29      0.219636      -5.29777       11.2842             0       0.76557       5.22576             0       61.6211      -1.83949             0       24.4466             0             0      0.171588   7.40748e-15      0.253967        102300        103168        236401   1.35719e-14
     0.044044       288.055       288.301      0.209035      -5.78824       10.9334             0      0.428451         4.886             0       61.0499      -3.51144             0       21.3879             0             0      0.170725   7.33092e-15      0.257717        102313        103172        236943   1.34316e-14
    0.0445445       288.238       288.315      0.199041      -5.82835       10.2816             0      0.116704       4.51538             0       60.2092      -4.75363             0       18.4928             0             0      0.170244   6.74694e-15      0.259807        102327        103177        237590   1.23616e-14
     0.045045       288.418       288.329       0.18943      -5.80571       9.60335             0     -0.190006       4.14136             0       59.3005      -5.92899             0       15.6232             0             0      0.169848   6.14099e-15      0.261529        102340        103181        238246   1.12514e-14
    0.0455455       288.567       288.339      0.183693       -5.1485       8.65728             0      -0.44579       3.73299             0        57.705       -6.4287             0       13.0129             0             0       0.17031   5.31294e-15      0.259524        102351        103185        238998   9.73429e-15