#           y             T         TMean   TPrime2Mean           U_x           U_y           U_z       UMean_x       UMean_y       UMean_z UPrime2Mea... UPrime2Mea... UPrime2Mea... UPrime2Mea... UPrime2Mea... UPrime2Mea...            O2           H2O          C3H8             p         pMean   pPrime2Mean           CO2
            0       287.866       288.312       0.23413       21.8362             0             0       13.8879             0             0       25.4953             0             0             0             0             0      0.228241   7.07987e-17    0.00764966        102418        103176        256741   1.29716e-16
  0.000500501       287.864       288.318      0.235571       21.8098      0.350666             0       13.8997     0.0127727             0       25.4985   -0.00481666             0     0.0671583             0             0      0.228216   7.12808e-17    0.00775809        102418        103176        256748     1.306e-16
     0.001001       287.862       288.323      0.237016       21.7832      0.701322             0       13.9115     0.0255471             0       25.5019   -0.00962319             0      0.134492             0             0       0.22819   7.17675e-17    0.00786794        102418        103176        256755   1.31491e-16
    0.0015015       287.861       288.335      0.240744       21.7216       1.04728             0       13.9383     0.0391125             0       25.5878   -0.00937717             0      0.289154             0             0      0.228003   7.45429e-17    0.00868361        102417        103176        256735   1.36576e-16
     0.002002        287.86       288.346      0.244487       21.6599       1.39325             0       13.9652     0.0526723             0       25.6743   -0.00921987             0      0.444238             0             0      0.227815   7.73277e-17    0.00950132        102416        103176        256715   1.41679e-16
    0.0025025       287.859       288.356      0.252059       21.5813       1.74007             0       14.0037     0.0648285             0       25.9443    -0.0311515             0      0.704407             0             0       0.22751    8.2461e-17     0.0108278        102415        103176        256648   1.51084e-16
     0.003003       287.857       288.367      0.259638       21.5024        2.0869             0       14.0422     0.0769571             0       26.2155    -0.0534996             0      0.965324             0             0      0.227205   8.75944e-17     0.0121529        102414        103175        256581   1.60489e-16
    0.0035035       287.844       288.372      0.268345       21.3829       2.43476             0        14.099     0.0845286             0       26.6796     -0.144832             0          1.35             0             0      0.226954   9.27628e-17     0.0132452        102413        103175        256430   1.69959e-16
     0.004004        287.83       288.378      0.276975       21.2628       2.78265             0       14.1557     0.0920607             0       27.1441     -0.236887             0        1.7357             0             0      0.226703    9.7929e-17     0.0143362        102411        103174        256278   1.79424e-16
    0.0045045       287.797       288.384      0.276085       21.0717       3.13332             0       14.2158     0.0947183             0        27.661     -0.418552             0       2.24855             0             0      0.226493   1.02829e-16     0.0152487        102410        103174        256041   1.88402e-16
   0.00500501       287.765        288.39      0.275098         20.88       3.48396             0       14.2755     0.0973624             0       28.1751     -0.600603             0       2.76229             0             0      0.226283   1.07736e-16      0.016159        102408        103173        255804   1.97392e-16
   0.00550551       287.703         288.4      0.264488       20.6254       3.83116             0       14.3015     0.0986683             0       28.4213     -0.820838             0       3.36321             0             0      0.226123   1.13274e-16     0.0168549        102407        103172        255545   2.07539e-16
   0.00600601       287.641        288.41      0.253874       20.3704         4.178             0       14.3266      0.100013             0       28.6602      -1.04027             0        3.9643             0             0      0.225963   1.18826e-16     0.0175543        102406        103172        255286   2.17712e-16
   0.00650651       287.573        288.42      0.242919       20.0927       4.49487             0       14.2855      0.104543             0       28.2913      -1.19324             0       4.57855             0             0      0.225735   1.25575e-16      0.018543        102405        103171        254978   2.30077e-16
   0.00700701       287.505        288.43      0.232005        19.815       4.81122             0       14.2435      0.109149             0       27.9127      -1.34443             0       5.19222             0             0      0.225505   1.32369e-16      0.019545        102404        103170        254670   2.42525e-16
   0.00750751        287.45        288.44      0.223996       19.5421       5.09191             0       14.1299       0.11901             0       26.8492      -1.36943             0       5.76495             0             0      0.225058   1.42383e-16     0.0214857        102403        103169        254320   2.60872e-16
   0.00800801       287.396        288.45      0.216014       19.2692       5.37237             0       14.0156      0.128922             0       25.7792       -1.3932             0       6.33708             0             0       0.22461   1.52433e-16      0.023433        102401        103168        253970   2.79286e-16
   0.00850851       287.349       288.459      0.209703       18.9914        5.6388             0       13.8528      0.141907             0       24.3043      -1.34103             0       6.87237             0             0       0.22407   1.64761e-16     0.0257817        102400        103168        253615   3.01874e-16
   0.00900901       287.303       288.469       0.20341       18.7133       5.90518             0       13.6897       0.15488             0       22.8285      -1.28905             0       7.40744             0             0      0.223531    1.7708e-16     0.0281271        102398        103167        253260   3.24443e-16
   0.00950951       287.272        288.48      0.198176       18.4182       6.16949             0       13.5072      0.167178             0       21.3069       -1.2477             0       7.93074             0             0      0.223032   1.88843e-16     0.0302952        102396        103166        252907   3.45996e-16
      0.01001       287.241       288.491      0.192975        18.123       6.43332             0       13.3246      0.179451             0       19.7877      -1.20682             0       8.45369             0             0      0.222533   2.00606e-16     0.0324673        102393        103165        252554   3.67548e-16
    0.0105105       287.223       288.503      0.189394       17.8175       6.67344             0       13.1375       0.19052             0       18.3846      -1.18909             0       8.95939             0             0      0.221987   2.12326e-16      0.034841        102391        103164        252204    3.8902e-16
     0.011011       287.206       288.515      0.185887       17.5124       6.91216             0       12.9502      0.201622             0       16.9834      -1.17076             0       9.46396             0             0      0.221436   2.24063e-16     0.0372327        102388        103163        251854   4.10525e-16
    0.0115115       287.203       288.526      0.185684       17.2238       7.08835             0       12.7547      0.214141             0       15.6642      -1.12566             0       9.91868             0             0      0.220702   2.36592e-16     0.0404246        102385        103162        251504    4.3348e-16
     0.012012         287.2       288.537      0.185532       16.9362       7.26249             0       12.5588      0.226705             0       14.3467      -1.07954             0       10.3719             0             0      0.219961   2.49172e-16     0.0436459        102382        103162        251156    4.5653e-16
    0.0125125        287.21       288.547       0.18749        16.686       7.35342             0       12.3511      0.241083             0       13.0974     -0.992068             0       10.7629             0             0      0.218945   2.63846e-16     0.0480636        102379        103161        250862   4.83415e-16
     0.013013        287.22       288.557      0.189404       16.4367       7.44236             0       12.1433      0.255446             0       11.8538      -0.90443             0       11.1527             0             0      0.217919   2.78635e-16     0.0525265        102376        103160        250569   5.10512e-16
    0.0135135       287.245       288.565      0.189704       16.2231       7.45621             0       11.9356      0.269201             0       10.8201      -0.81048             0       11.4963             0             0      0.216503   2.97764e-16      0.058684        102373        103160        250297   5.45558e-16
     0.014014        287.27       288.574      0.189938         16.01       7.46872             0       11.7281      0.282948             0        9.7967     -0.716331             0       11.8376             0             0      0.215077   3.16981e-16      0.064884        102370        103159        250025   5.80769e-16
    0.0145145       287.309       288.581      0.187893       15.8138        7.4343             0       11.5278      0.296387             0       9.13267     -0.615297             0       12.0996             0             0      0.213312   3.39307e-16     0.0725583        102367        103159        249768   6.21673e-16
     0.015015       287.348       288.588      0.185819       15.6172       7.39967             0       11.3274      0.309963             0       8.48071     -0.513103             0       12.3561             0             0      0.211547   3.61571e-16     0.0802326        102364        103158        249512   6.62466e-16
    0.0155155        287.39       288.595      0.182826       15.4075       7.35848             0        11.121      0.327978             0       8.21896     -0.373366             0       12.4389             0             0      0.209781    3.8187e-16     0.0879091        102362        103158        249293   6.99656e-16
     0.016016       287.431       288.601      0.179867       15.1969       7.31807             0       10.9142      0.346188             0       7.97065     -0.234133             0       12.5149             0             0       0.20802   4.02105e-16     0.0955655        102359        103158        249075   7.36731e-16
    0.0165165        287.47       288.606      0.177916       14.9564        7.3012             0       10.6921      0.370321             0       8.12925     -0.110113             0       12.3852             0             0      0.206398   4.20436e-16      0.102616        102357        103157        248887   7.70318e-16
     0.017017       287.509       288.611      0.176037       14.7151       7.28584             0       10.4698       0.39449             0       8.30339    0.00904824             0       12.2509             0             0       0.20477   4.38911e-16      0.109695        102354        103157        248699   8.04166e-16
    0.0175175       287.555       288.613      0.176246       14.4494       7.31325             0       10.2424      0.419683             0       8.91878   -0.00982137             0       11.9884             0             0      0.202951   4.61437e-16      0.117605        102352        103157        248511   8.45439e-16
     0.018018         287.6       288.616      0.176538       14.1835        7.3425             0       10.0153      0.444764             0        9.5486    -0.0355248             0       11.7239             0             0      0.201127   4.84028e-16      0.125535        102350        103157        248323    8.8683e-16
    0.0185185        287.65       288.616      0.179093        13.914       7.42107             0       9.79285      0.466851             0       10.5647     -0.244222             0       11.4053             0             0      0.199173   5.08342e-16      0.134028        102349        103158        248142   9.31377e-16
     0.019019       287.699       288.617      0.181717        13.646       7.50087             0       9.57072      0.488852             0       11.5899     -0.457152             0       11.0853             0             0      0.197246   5.32278e-16       0.14241        102347        103158        247961   9.75233e-16
    0.0195195       287.732       288.616      0.186105       13.4143       7.61146             0       9.35531      0.508665             0       12.8444     -0.777238             0       10.7289             0             0      0.195969   5.46667e-16       0.14796        102346        103158        247796   1.00159e-15
      0.02002       287.764       288.615      0.190555       13.1858       7.72133             0       9.14014       0.52853             0       14.1015      -1.09575             0       10.3712             0             0      0.194719   5.60634e-16      0.153397        102344        103158        247630   1.02719e-15
    0.0205205       287.783       288.614      0.196468       13.0338       7.81352             0       8.93047      0.549637             0       15.4181      -1.37663             0       9.98331             0             0      0.194098    5.6451e-16      0.156096        102344        103159        247422   1.03429e-15
     0.021021       287.803       288.614      0.202488       12.8861       7.90142             0       8.72135      0.571035             0       16.7264      -1.65152             0       9.59399             0             0      0.193473   5.68494e-16      0.158812        102343        103159        247214   1.04159e-15
    0.0215215       287.832       288.615      0.210925       12.8367       7.89147             0       8.52457      0.599047             0       17.8436      -1.78972             0       9.17109             0             0      0.192766   5.74931e-16      0.161888        102343        103159        247002   1.05338e-15
     0.022022       287.861       288.615      0.219518       12.7911       7.87456             0       8.32904      0.627129             0       18.9391      -1.91791             0       8.74861             0             0      0.192046   5.82158e-16      0.165016        102343        103159        246791   1.06662e-15
    0.0225225       287.905       288.618      0.231487       12.8279       7.70638             0       8.16035      0.656747             0       19.5619      -1.82848             0       8.33493             0             0      0.191066   6.06526e-16      0.169277        102343        103160        246615   1.11127e-15
     0.023023        287.95       288.621      0.243468       12.8649       7.53299             0       7.99271      0.686643             0       20.1681        -1.733             0       7.92445             0             0      0.190085   6.32215e-16      0.173545        102343        103160        246442   1.15833e-15
    0.0235235       287.999       288.623      0.255685       12.9076        7.2515             0       7.84667      0.722317             0       20.4302      -1.51211             0       7.58032             0             0       0.18907   6.85298e-16      0.177958        102342        103160        246325   1.25559e-15
     0.024024       288.047       288.625      0.267777       12.9455       6.97034             0       7.70135      0.758317             0       20.6856      -1.28741             0       7.23999             0             0      0.188073   7.39043e-16      0.182289        102342        103160        246211   1.35406e-15
    0.0245245       288.082       288.626      0.277394       12.8867       6.69557             0       7.57059      0.800791             0       20.8102     -0.987161             0        6.9753             0             0      0.187453   8.05921e-16      0.184988        102342        103160        246153    1.4766e-15
     0.025025       288.116       288.628      0.286936       12.8205       6.42538             0        7.4404      0.843405             0       20.9372     -0.682824             0       6.71434             0             0      0.186865   8.71924e-16      0.187542        102341        103160        246099   1.59753e-15
    0.0255255       288.126       288.633      0.295046       12.6146       6.24202             0         7.321      0.888666             0       21.1117     -0.300843             0       6.52428             0             0      0.186906   9.21303e-16      0.187366        102341        103160        246132     1.688e-15
     0.026026       288.135       288.638      0.303008       12.4038       6.06291             0       7.20169      0.934442             0       21.3059     0.0748155             0       6.33985             0             0      0.186982   9.70257e-16      0.187035        102340        103160        246172   1.77769e-15
    0.0265265       288.123       288.643      0.308273       12.1066       5.96138             0       7.08414      0.989631             0       21.8596      0.335231             0       6.25825             0             0      0.187704   1.01147e-15      0.183895        102339        103159        246326   1.85319e-15
     0.027027        288.11       288.648      0.313226       11.8104       5.86061             0       6.96735         1.045             0       22.4269      0.585688             0       6.18461             0             0      0.188446   1.05289e-15      0.180668        102338        103159        246485    1.9291e-15
    0.0275275       288.084        288.65       0.31271       11.5319       5.77299             0       6.86368       1.10344             0       23.2321      0.661699             0       6.25055             0             0      0.189541   1.09816e-15       0.17591        102337        103159        246737   2.01203e-15
     0.028028       288.057       288.651      0.311819       11.2569       5.68438             0       6.76237       1.16146             0        24.019      0.733862             0       6.32365             0             0      0.190635   1.14286e-15      0.171153        102336        103158        246993   2.09393e-15
    0.0285285       288.026       288.648      0.304609       11.0428       5.57903             0       6.70081       1.21248             0       24.4976      0.741143             0       6.51749             0             0      0.191723   1.17807e-15       0.16642        102335        103158        247321   2.15845e-15
     0.029029       287.994       288.644       0.29721        10.826       5.47827             0       6.64265       1.26266             0       24.9297      0.751879             0       6.71667             0             0      0.192802   1.21251e-15       0.16173        102334        103157        247654   2.22154e-15
    0.0295295       287.962       288.637      0.286765       10.5648       5.45191             0       6.63965       1.29938             0       24.6061      0.818728             0       7.00254             0             0      0.193719   1.23439e-15      0.157742        102332        103156        248082   2.26162e-15
      0.03003        287.93        288.63        0.2763       10.2945       5.43531             0       6.63965       1.33516             0       24.2317      0.890207             0       7.29143             0             0      0.194612   1.25547e-15      0.153862        102331        103156        248515   2.30026e-15
    0.0305305       287.909       288.625       0.26554       9.88198       5.57155             0       6.68663       1.35604             0       23.0621       1.03423             0       7.62747             0             0      0.195121   1.26422e-15      0.151649        102329        103155        249023   2.31628e-15
     0.031031       287.888        288.62      0.254681       9.46708       5.70999             0       6.73527       1.37607             0       21.8607       1.17784             0       7.96443             0             0      0.195595   1.27218e-15      0.149586        102328        103154        249537   2.33086e-15
    0.0315315       287.883       288.618      0.242323       9.01557       5.88154             0       6.80897       1.38309             0       20.1793       1.31498             0       8.31542             0             0      0.195552   1.26828e-15      0.149774        102326        103153        250139   2.32373e-15
     0.032032       287.879       288.617      0.229878       8.57546       6.04317             0       6.88308       1.38949             0       18.4931       1.44552             0        8.6658             0             0      0.195473   1.26369e-15      0.150118        102324        103152        250745   2.31531e-15
    0.0325325        287.89       288.618      0.216162       8.30213       6.05974             0       6.96322       1.38696             0       16.7346       1.47951             0       9.00726             0             0      0.194872   1.24886e-15      0.152729        102323        103152        251417   2.28815e-15
     0.033033       287.901        288.62      0.202547       8.04465       6.06338             0       7.04322       1.38414             0       14.9913       1.50457             0       9.34747             0             0      0.194256   1.23386e-15      0.155409        102321        103151        252087   2.26066e-15
    0.0335335       287.919       288.622      0.190369        8.0116       5.88395             0       7.12117       1.37739             0       13.4631       1.40326             0        9.6698             0             0      0.193415   1.21629e-15      0.159065        102320        103150        252730   2.22847e-15
     0.034034       287.936       288.625       0.17838       7.98537       5.69957             0       7.19896       1.37052             0       11.9576       1.29396             0       9.99061             0             0      0.192583   1.19921e-15      0.162682        102319        103150        253374   2.19717e-15
    0.0345345       287.944       288.627      0.168983       8.05275       5.44724             0       7.27465       1.36193             0        10.764       1.07525             0       10.2904             0             0      0.191875   1.18877e-15       0.16576        102318        103149        254024   2.17804e-15
     0.035035       287.952       288.629      0.159744       8.11862       5.19712             0       7.35056       1.35329             0       9.58823      0.848093             0       10.5871             0             0      0.191185   1.17906e-15      0.168762        102317        103149        254673   2.16027e-15
    0.0355355       287.949       288.631      0.152587       8.16437       4.97631             0       7.42965       1.34399             0       8.64905      0.508525             0       10.8417             0             0       0.19073   1.17919e-15      0.170739        102316        103149        255315    2.1605e-15
     0.036036       287.945       288.632      0.145535       8.20811       4.75805             0       7.50887       1.33459             0       7.72829      0.159613             0       11.0884             0             0      0.190282   1.18147e-15      0.172686        102315        103149        255950   2.16468e-15
    0.0365365        287.94       288.634      0.139821       8.22602        4.5726             0       7.58971       1.32392             0       7.04485     -0.309727             0       11.2321             0             0      0.189925   1.21153e-15      0.174239        102314        103149        256497   2.21975e-15
     0.037037       287.936       288.635       0.13418       8.24592       4.38809             0       7.66955       1.31285             0        6.3941     -0.785902             0       11.3633             0             0      0.189559   1.24407e-15      0.175829        102314        103149        257040   2.27938e-15
    0.0375375       287.941       288.636      0.129465       8.29074       4.21544             0       7.73692       1.29675             0       6.15244      -1.34763             0       11.3366             0             0      0.189085   1.30782e-15       0.17789        102313        103149        257539   2.39617e-15
     0.038038       287.947       288.638      0.124805       8.33447       4.04265             0       7.80252       1.28022             0       5.95566      -1.91143             0       11.2958             0             0      0.188583   1.37399e-15      0.180075        102312        103149        258032   2.51741e-15
    0.0385385        287.97        288.64      0.120827       8.36506       3.86831             0       7.84657       1.25855             0       6.30435      -2.50041             0       11.0845             0             0      0.187733   1.46973e-15      0.183771        102311        103150        258459   2.69282e-15
     0.039039       287.995       288.642       0.11689       8.37394       3.69658             0       7.88866       1.23646             0       6.70567      -3.08568             0       10.8587             0             0      0.186834   1.56817e-15      0.187677        102310        103151        258876   2.87318e-15
    0.0395395       288.037       288.643      0.113445       8.12621        3.5557             0       7.90757       1.20934             0       7.72897      -3.62711             0       10.4614             0             0      0.185365   1.69854e-15      0.194067        102309        103152        259167   3.11204e-15
      0.04004       288.079       288.645      0.110047       7.84144       3.41716             0       7.92448       1.18171             0        8.8089      -4.15791             0       10.0509             0             0      0.183909   1.82658e-15      0.200396        102308        103152        259451   3.34664e-15
    0.0405405       288.123       288.645      0.107187       7.13083       3.30562             0       7.91837       1.14812             0       10.5401      -4.56645             0       9.49047             0             0      0.182616   1.92788e-15      0.206019        102307        103154        259665   3.53224e-15
     0.041041       288.166       288.645      0.104362       6.38733        3.1939             0       7.91001       1.11394             0       12.3168      -4.95861             0       8.92025             0             0      0.181369   2.02482e-15       0.21144        102306        103155        259872   3.70984e-15
    0.0415415       288.205       288.641      0.101925       5.27555       3.08008             0        7.8764       1.07324             0       14.6022      -5.16747             0       8.24084             0             0      0.180643   2.07283e-15      0.214597        102305        103156        260004   3.79781e-15
     0.042042       288.244       288.638     0.0995564       4.13882       2.96468             0       7.84015       1.03182             0       16.9026      -5.35823             0       7.55707             0             0      0.179943   2.11865e-15       0.21764        102304        103158        260123   3.88176e-15
    0.0425425       288.273       288.633      0.097933       2.73006       2.83198             0       7.77498      0.982436             0       19.3654      -5.35169             0        6.8258             0             0      0.179531   2.14057e-15      0.219432        102303        103159        260107   3.92193e-15
     0.043043       288.301       288.627     0.0964256       1.31073       2.69698             0       7.70788      0.932377             0        21.809      -5.32962             0       6.09662             0             0      0.179148   2.16093e-15      0.221097        102303        103161        260087   3.95924e-15
    0.0435435       288.308        288.62     0.0961506     -0.220959       2.53758             0       7.62023      0.875096             0       24.0484      -5.14257             0       5.38965             0             0      0.179077   2.16468e-15      0.221405        102303        103162        260040    3.9661e-15
     0.044044       288.313       288.614     0.0959927      -1.74082       2.37658             0       7.53194      0.817153             0       26.2482      -4.94692             0       4.68819             0             0      0.179027   2.16794e-15      0.221624        102303        103163        259995   3.97207e-15
    0.0445445       288.303       288.606     0.0970475      -3.13815       2.19888             0       7.43706      0.752357             0       28.0387      -4.66213             0       4.04373             0             0       0.17919   2.16615e-15      0.220912        102304        103165        259966   3.96878e-15
     0.045045       288.292         288.6     0.0981967      -4.51059       2.01989             0       7.34153      0.686876             0       29.7851        -4.374             0       3.40563             0             0      0.179384   2.16345e-15      0.220072        102304        103166        259932   3.96384e-15
    0.0455455       288.262       288.594      0.100299      -5.63129       1.82773             0        7.2394      0.614467             0       31.0854      -4.05213             0       2.83196             0             0      0.179875    2.1516e-15      0.217935        102306        103167        259833   3.94213e-15