#           y             T         TMean   TPrime2Mean           U_x           U_y           U_z       UMean_x       UMean_y       UMean_z UPrime2Mea... UPrime2Mea... UPrime2Mea... UPrime2Mea... UPrime2Mea... UPrime2Mea...            O2           H2O          C3H8             p         pMean   pPrime2Mean           CO2
  1.11022e-19       287.716        288.02      0.084462       26.1027  -1.63089e-15             0       22.5726  -3.83266e-16             0       10.6921   -5.6303e-17             0   1.01489e-16             0             0      0.229955   3.01882e-10   0.000196103        102155        103103        222787   5.53104e-10
  0.000500501       287.749       288.021     0.0845513       26.0521    -0.0772621             0        22.574      0.014526             0       10.7142     -0.135815             0     0.0312009             0             0      0.229802   2.26093e-09   0.000860087        102153        103103        222706   4.14245e-09
     0.001001       287.784       288.022     0.0846667       26.0012      -0.15458             0       22.5753     0.0290514             0       10.7363     -0.271642             0     0.0625326             0             0      0.229647   4.27598e-09    0.00153393        102151        103103        222625    7.8344e-09
    0.0015015       288.405       288.035     0.0977707       25.8653      -0.25982             0        22.579     0.0432643             0       10.7996     -0.413416             0      0.159162             0             0       0.22836   3.42342e-08    0.00712799        102146        103103        222484   6.27235e-08
     0.002002       289.045       288.049      0.114093       25.7286     -0.365186             0       22.5826     0.0574696             0       10.8632     -0.555248             0      0.256232             0             0      0.227059   6.50012e-08      0.012787        102142        103102        222343   1.19094e-07
    0.0025025       294.327       288.149      0.931827       25.4152     -0.501784             0       22.5895     0.0697491             0       11.0263     -0.711415             0      0.462854             0             0      0.222036   2.97142e-07     0.0346238        102139        103102        222168    5.4442e-07
     0.003003       299.673        288.25       1.80282       25.1018     -0.638052             0       22.5965     0.0820233             0         11.19     -0.867934             0      0.670805             0             0      0.216998   5.32073e-07     0.0565253        102136        103101        221995   9.74856e-07
    0.0035035        315.57       288.599       11.4974       24.7927     -0.719656             0       22.6193     0.0934215             0       11.4667      -1.08278             0       1.09898             0             0      0.209491   1.22917e-06     0.0891549        102129        103101        221882   2.25206e-06
     0.004004       331.526        288.95       21.3923       24.4899     -0.800487             0       22.6425      0.104792             0       11.7445      -1.29862             0       1.52939             0             0      0.202017   1.92855e-06      0.121644        102123        103100        221771   3.53346e-06
    0.0045045       354.647       289.568       56.1369        24.967     -0.785447             0        22.706      0.112793             0       12.1521       -1.6364             0       2.23717             0             0      0.198564   2.91158e-06      0.136648        102116        103099        221795   5.33455e-06
   0.00500501       377.786       290.187       91.3001       25.4547     -0.769633             0       22.7702      0.120824             0       12.5604      -1.97481             0       2.94547             0             0      0.195165   3.89122e-06      0.151415        102109        103097        221820   7.12943e-06
   0.00550551        402.61       290.942       167.913       26.9772      -0.67729             0       22.8996      0.131841             0       13.0443      -2.37479             0       3.70545             0             0      0.197183   4.53515e-06      0.142636        102102        103096        221896   8.30925e-06
   0.00600601         427.4       291.697       244.782       28.4974     -0.589221             0       23.0278       0.14287             0       13.5268      -2.77512             0       4.46376             0             0      0.199195   5.19213e-06       0.13388        102096        103095        221969   9.51294e-06
   0.00650651       449.455       292.413       342.755       29.8219     -0.853057             0       23.0496      0.154875             0         13.88      -3.20535             0        5.0837             0             0      0.200767   6.92209e-06      0.127028        102095        103093        221895   1.26826e-05
   0.00700701       471.458       293.126       440.402        31.133      -1.12108             0       23.0665      0.166945             0       14.2275      -3.63224             0       5.70094             0             0      0.202263    8.7304e-06      0.120504        102095        103092        221818   1.59957e-05
   0.00750751       489.732       293.618       515.065       31.5022      -1.68379             0       22.7413      0.183622             0       14.1702       -3.8238             0       6.12828             0             0      0.198423   1.60573e-05      0.137126        102101        103091        221587   2.94199e-05
   0.00800801       507.982       294.107       589.468       31.8612      -2.24659             0       22.4074      0.200584             0       14.1041       -4.0086             0       6.55363             0             0      0.194505   2.35533e-05      0.154085        102106        103089        221355   4.31541e-05
   0.00850851        524.77       294.449       647.955       31.5861      -2.81511             0       21.5434      0.235113             0       13.4971      -3.77816             0       6.85694             0             0      0.185801   4.14526e-05      0.191745        102114        103088        220972   7.59489e-05
   0.00900901       541.464       294.792       706.769       31.3019      -3.38161             0       20.6711        0.2696             0       12.8832      -3.54198             0       7.15406             0             0      0.177087   5.95168e-05      0.229446        102121        103087        220585   0.000109046
   0.00950951       553.093       295.148        783.37       30.5267      -3.83777             0        19.344      0.301799             0       11.9005      -2.99291             0       7.11344             0             0      0.167836   8.65793e-05      0.269392        102117        103087        219970   0.000158629
      0.01001       564.582       295.504       860.546       29.7391      -4.28115             0       18.0168      0.333313             0       10.9242      -2.44606             0       7.06685             0             0      0.158616   0.000113671      0.309197        102114        103087        219353   0.000208267
    0.0105105       569.201       295.871       965.893       28.3423      -4.09849             0       16.6806      0.331252             0       10.2594      -2.00769             0       6.72729             0             0      0.150985   0.000142202      0.342084        102107        103087        218640   0.000260541
     0.011011       573.748       296.239       1072.25       26.9415      -3.90579             0       15.3551      0.327975             0       9.61971      -1.58482             0       6.39473             0             0      0.143409   0.000170501      0.374734        102099        103087        217927   0.000312389
    0.0115115       575.088       296.636       1223.35       25.3553      -3.26689             0       14.5066      0.270629             0        10.095      -1.85088             0       6.37309             0             0      0.138271   0.000188447       0.39689        102103        103087        217196    0.00034527
     0.012012       576.462       297.033       1375.03       23.7719      -2.62382             0        13.671      0.213363             0       10.5993       -2.1305             0       6.36375             0             0      0.133169   0.000205843      0.418892        102107        103087        216465   0.000377143
    0.0125125       579.235       297.386       1550.69       22.3001      -1.81167             0       13.3555      0.159375             0       12.2847      -2.96165             0       6.85463             0             0      0.129556    0.00020087      0.434653        102105        103086        215698   0.000368032
     0.013013        582.05       297.733       1724.42       20.8403      -1.00677             0       13.0484        0.1052             0       14.0017      -3.79765             0       7.35772             0             0      0.125927   0.000195521      0.450485        102102        103086        214930   0.000358231
    0.0135135       586.475       297.816       1825.85       19.8315     -0.473095             0       13.0535     0.0440137             0       16.9048      -4.81523             0       8.31856             0             0      0.121716   0.000176057      0.468994        102097        103084        214114   0.000322569
     0.014014       590.671       297.887       1922.74       18.8374     0.0529511             0       13.0661    -0.0169154             0       19.8224      -5.83151             0       9.29104             0             0      0.117477   0.000156405      0.487627        102092        103083        213297   0.000286563
    0.0145145       586.971       297.547       1862.26       18.3497      0.314215             0       13.3401    -0.0689351             0       23.2435      -6.80248             0       10.6681             0             0      0.112272   0.000130231      0.510524        102084        103081        212471   0.000238607
     0.015015         582.8       297.199       1799.14       17.8698      0.570714             0       13.6212     -0.120783             0       26.6555      -7.76618             0       12.0542             0             0       0.10718   0.000103961      0.532935        102076        103079        211647   0.000190476
    0.0155155       563.408        296.63       1650.31       17.6407      0.673154             0       14.1345     -0.167063             0       29.7713      -8.49458             0       13.7345             0             0      0.105719   7.45982e-05      0.539586        102066        103076        210865   0.000136678
     0.016016       543.667       296.059       1500.73       17.4168      0.769015             0       14.6556     -0.212597             0       32.8853      -9.20418             0       15.4199             0             0      0.104558    4.5616e-05      0.544932        102055        103074        210094    8.3577e-05
    0.0165165       513.329       295.454       1328.26       17.3453      0.665867             0       15.4138     -0.235571             0        35.941       -9.3451             0       17.2581             0             0       0.11245   2.81405e-05      0.510799        102045        103070        209659   5.15587e-05
     0.017017       482.955       294.847       1155.26       17.2925      0.562208             0       16.1804      -0.25671             0       38.9979      -9.43963             0       19.0974             0             0      0.120446   1.10991e-05      0.476209        102035        103067        209245   2.03357e-05
    0.0175175       451.567       294.201       967.255       17.7726       0.44401             0       17.1842     -0.225734             0       42.0899      -8.21646             0       20.9679             0             0      0.131403   6.38939e-06      0.428619        102025        103063        209430   1.17066e-05
     0.018018       420.378       293.552       780.439       18.2826      0.327215             0       18.1828     -0.193191             0       45.1631      -6.95752             0       22.8391             0             0      0.142237   1.82441e-06      0.381558        102015        103059        209640   3.34265e-06
    0.0185185       394.492       292.865       625.578       19.5932      0.248023             0       19.0402     -0.118681             0        47.734      -4.74107             0       24.7312             0             0      0.149806   1.13557e-06      0.348657        102011        103054        210505   2.08057e-06
     0.019019       368.912       292.178       472.415        20.912      0.179948             0       19.8819    -0.0452299             0       50.2489       -2.5309             0       26.6253             0             0      0.157327   4.67682e-07      0.315966        102007        103049        211395    8.5688e-07
    0.0195195       351.083       291.495       362.243       22.4388      0.393347             0       20.3257    0.00139118             0       51.3467     -0.479668             0       28.5718             0             0      0.163628   3.30292e-07      0.288572        102010        103044        212935   6.05156e-07
      0.02002       333.569       290.821       254.017       23.9615      0.620304             0       20.7588     0.0470898             0       52.3573       1.55336             0       30.5301             0             0      0.170014   1.96259e-07      0.260809        102013        103040        214499   3.59583e-07
    0.0205205       323.617       290.354         192.5        25.387       1.17267             0       20.9345     0.0706479             0       51.2755       3.14939             0       32.7699             0             0      0.178436   1.42812e-07      0.224189        102010        103034        216640   2.61659e-07
     0.021021       313.864       289.897       132.284        26.798         1.733             0       21.1015     0.0933524             0       50.1223       4.72641             0       35.0198             0             0      0.186902    9.0397e-08      0.187383        102006        103029        218793   1.65624e-07
    0.0215215       308.638       289.646       101.733       27.8804       2.47475             0       21.0722     0.0965853             0       47.3403       5.86961             0       37.5017             0             0      0.196344   6.15148e-08      0.146329        101997        103024        221208   1.12707e-07
     0.022022       303.514       289.399       71.7088       28.9435       3.22236             0       21.0322     0.0983901             0       44.5314       6.99571             0       39.9882             0             0      0.205651   3.33684e-08      0.105866        101987        103019        223631   6.11371e-08
    0.0225225       300.619       289.204        53.128       29.5902        4.0969             0        20.759     0.0691692             0        41.137       7.75031             0       42.5775             0             0      0.211999    2.1209e-08     0.0782634        101978        103013        226227   3.88588e-08
     0.023023       297.768       289.011       34.8913       30.1966       4.96138             0       20.4733     0.0379419             0       37.7802       8.48682             0       45.1711             0             0      0.218174   9.44173e-09     0.0514186        101968        103008        228836    1.7299e-08
    0.0235235       295.845       288.845       23.7907       29.9696       5.61709             0       19.9277     -0.034898             0       35.2021       8.84802             0       47.8569             0             0      0.220734   5.80637e-09     0.0402888        101958        103002        231752   1.06383e-08
     0.024024       293.967       288.681       12.9911       29.6893       6.25291             0       19.3784     -0.109791             0       32.7087       9.20211             0       50.5485             0             0      0.223203   2.30318e-09     0.0295509        101948        102997        234687   4.21986e-09
    0.0245245       292.993        288.57       8.16128       28.3523       6.49435             0       18.7566     -0.225405             0       31.8966       9.41503             0       53.3535             0             0      0.223886   1.42147e-09     0.0265842        101940        102992        237996    2.6044e-09
     0.025025       292.045       288.461       3.50341       26.9794       6.71092             0       18.1398     -0.341988             0       31.1104        9.6354             0       56.1641             0             0      0.224541   5.75973e-10     0.0237365        101933        102987        241323   1.05529e-09
    0.0255255        291.56       288.405       2.11245       24.9233       6.45501             0         17.62     -0.476969             0       30.8161       9.99759             0       59.0812             0             0      0.224675   4.18507e-10     0.0231521        101927        102981        244997   7.66783e-10
     0.026026       291.081       288.351      0.779176       22.8575       6.17582             0       17.1008      -0.61282             0       30.4863       10.3556             0       61.9959             0             0      0.224802   2.69353e-10     0.0226005        101922        102976        248680   4.93505e-10
    0.0265265       290.682       288.326      0.497487       20.6164       5.47229             0       16.5926     -0.764556             0       29.5088       10.6377             0        64.865             0             0      0.224792   2.71722e-10     0.0226448        101921        102969        252542   4.97845e-10
     0.027027       290.279       288.303      0.228326        18.376       4.75459             0       16.0782     -0.917612             0       28.5117        10.903             0       67.7266             0             0      0.224771   2.74836e-10     0.0227344        101920        102963        256408   5.03551e-10
    0.0275275       289.801       288.295       0.17865       16.1463        3.7886             0       15.4536      -1.09381             0       27.1703       10.8744             0        70.456             0             0      0.224568   2.90998e-10     0.0236167        101918        102956        260353   5.33163e-10
     0.028028       289.328       288.287      0.131341       13.9201        2.8167             0       14.8232      -1.27126             0        25.842        10.834             0       73.1682             0             0      0.224289   3.03439e-10     0.0248307        101917        102949        264290   5.55957e-10
    0.0285285       288.933       288.284      0.123944       11.7532       1.74512             0       14.0939      -1.46974             0       24.7344       10.5932             0       75.5904             0             0      0.222724    2.5314e-10     0.0316363        101915        102941        268106     4.638e-10
     0.029029       288.544       288.282      0.117049       9.63201       0.67818             0       13.3596      -1.66901             0       23.6631       10.3508             0        77.983             0             0      0.221064    2.0161e-10     0.0388511        101914        102934        271885   3.69387e-10
    0.0295295       288.238       288.277      0.118307       8.25221     -0.313432             0       12.5453      -1.88131             0       23.1799       10.0803             0       79.8935             0             0      0.217876   1.30073e-10     0.0527129        101912        102927        275088   2.38318e-10
      0.03003        287.94       288.273      0.119647       6.92243      -1.29585             0       11.7268       -2.0939             0       22.7441       9.82011             0       81.7615             0             0      0.214803   6.11813e-11     0.0660718        101910        102920        278233   1.12096e-10
    0.0305305       287.766       288.268      0.122286       6.37621      -2.13429             0        10.843      -2.31097             0       23.0481       9.72014             0       82.9656             0             0      0.213543   3.37368e-11     0.0715526        101906        102913        280474    6.1812e-11
     0.031031       287.601       288.264      0.124801       5.81511      -2.96776             0       9.95496      -2.52726             0       23.4028       9.63758             0       84.1225             0             0      0.212463   7.76281e-12     0.0762473        101901        102907        282650   1.42229e-11
    0.0315315       287.595       288.261      0.125439        5.0289      -3.72608             0       9.00272      -2.73194             0       24.5241       9.81826             0        84.568             0             0      0.214119   4.03797e-12     0.0690487        101895        102901        283835   7.39831e-12
     0.032032       287.591       288.259      0.125986       4.22178      -4.48073             0       8.04812      -2.93572             0       25.6788       10.0116             0       84.9729             0             0       0.21577   5.34389e-13     0.0618681        101889        102896        284963   9.79101e-13
    0.0325325        287.63       288.257      0.125198       3.10884      -5.18184             0       7.05884      -3.12626             0       27.3222       10.3894             0       84.7845             0             0      0.217362   2.66885e-13     0.0549494        101882        102891        285251   4.88982e-13
     0.033033       287.669       288.255      0.124393       2.00354      -5.87875             0       6.06949      -3.31565             0         28.95       10.7671             0       84.5643             0             0      0.218883   1.65056e-14     0.0483351        101875        102887        285512   3.02414e-14
    0.0335335       287.698       288.254      0.123357       1.00628      -6.51629             0       5.07906      -3.48875             0       30.3554        11.142             0       83.8946             0             0      0.219414   8.47779e-15     0.0460267        101868        102884        285380   1.55329e-14
     0.034034       287.725       288.253      0.122364     0.0142694      -7.14907             0       4.08929       -3.6606             0       31.6946       11.4991             0       83.1949             0             0      0.219908   9.84341e-16     0.0438767        101862        102881        285244    1.8035e-15
    0.0345345       287.732       288.254      0.121977     -0.905979      -7.71657             0       3.10854      -3.81523             0       32.1265       11.6117             0       82.0854             0             0      0.219904   8.15057e-16     0.0438967        101856        102879        285054   1.49334e-15
     0.035035       287.738       288.255      0.121659      -1.82729      -8.27847             0       2.12812      -3.96878             0       32.4769       11.6923             0       80.9419             0             0      0.219884   6.57159e-16     0.0439813        101851        102877        284866   1.20404e-15
    0.0355355       287.732       288.257      0.122249       -2.7627      -8.76589             0       1.15217      -4.10794             0       31.7443       11.3463             0       79.3483             0             0      0.219668   6.50533e-16     0.0449235        101848        102877        284709    1.1919e-15
     0.036036       287.725       288.259      0.122909      -3.69602      -9.24802             0      0.176136      -4.24616             0       30.9701        10.968             0       77.7149             0             0      0.219444   6.44281e-16     0.0458954        101844        102876        284542   1.18044e-15
    0.0365365       287.712       288.261      0.124486      -4.60242      -9.66205             0     -0.801083      -4.37229             0       29.6597       10.1723             0       75.5693             0             0      0.219133   6.42845e-16     0.0472486        101843        102878        284255   1.17781e-15
     0.037037       287.698       288.263      0.126152      -5.50444      -10.0703             0      -1.77807       -4.4968             0       28.3748       9.36559             0       73.3845             0             0      0.218826   6.41451e-16     0.0485839        101842        102879        283939   1.17526e-15
    0.0375375       287.687       288.264      0.128927      -6.35162      -10.4068             0      -2.75215       -4.6009             0       27.4083       8.42081             0       70.7096             0             0       0.21857   6.40582e-16     0.0496963        101843        102882        283248   1.17367e-15
     0.038038       287.676       288.265       0.13178       -7.1928      -10.7368             0      -3.72445      -4.70237             0       26.5186       7.49889             0       68.0027             0             0      0.218301   6.39802e-16     0.0508633        101843        102886        282514   1.17224e-15
    0.0385385       287.665       288.265      0.135574      -7.96111      -10.9877             0      -4.67499      -4.77183             0       26.5616       6.85489             0       64.9058             0             0       0.21788   6.40091e-16     0.0526937        101845        102891        281243   1.17277e-15
     0.039039       287.654       288.264      0.139449      -8.72055      -11.2303             0      -5.62061      -4.83775             0        26.701       6.25994             0       61.7896             0             0      0.217414   6.40529e-16      0.054722        101847        102896        279930   1.17357e-15
    0.0395395       287.635       288.262      0.144274      -9.37509      -11.3746             0      -6.50803      -4.86199             0       27.9787        6.2449             0       58.4457             0             0       0.21641   6.42721e-16     0.0590889        101849        102903        278113   1.17758e-15
      0.04004       287.616       288.259      0.149041      -10.0175      -11.5082             0      -7.38633      -4.88212             0       29.3443       6.28304             0       55.0936             0             0      0.215345   6.45195e-16     0.0637176        101852        102911        276262   1.18212e-15
    0.0405405       287.589       288.255      0.153134      -10.5205      -11.5179             0      -8.15964      -4.85512             0       31.7203       6.93276             0       51.6477             0             0      0.213588   6.50924e-16      0.071357        101855        102920        274026   1.19261e-15
     0.041041       287.561       288.252      0.156993      -11.0105      -11.5157             0      -8.91987      -4.82353             0       34.1481        7.6179             0       48.1994             0             0      0.211761   6.57024e-16     0.0793005        101859        102928        271771   1.20379e-15
    0.0415415       287.528        288.25      0.158219      -11.3552        -11.38             0       -9.5337      -4.74055             0       37.1559       8.69941             0       44.7234             0             0      0.209151   6.67283e-16     0.0906487        101863        102938        269314   1.22259e-15
     0.042042       287.494       288.249      0.159414      -11.6894       -11.233             0      -10.1323      -4.65278             0       40.1675        9.7883             0       41.2515             0             0      0.206475   6.77785e-16      0.102284        101867        102948        266858   1.24183e-15
    0.0425425       287.462        288.25       0.16028      -11.9079       -10.963             0      -10.5643      -4.51272             0       43.2197       10.9576             0       37.8229             0             0      0.203077   6.90947e-16      0.117056        101872        102958        264404   1.26594e-15
     0.043043       287.431       288.251      0.161202      -12.1165      -10.6808             0       -10.981      -4.36745             0       46.2623       12.1078             0       34.4074             0             0      0.199697    7.0405e-16      0.131752        101877        102967        261965   1.28995e-15
    0.0435435        287.42        288.25      0.162725      -12.2201      -10.2691             0      -11.2343      -4.16689             0       49.2033       13.0549             0       31.1307             0             0        0.1965    7.1652e-16      0.145652        101884        102977        259689    1.3128e-15
     0.044044       287.412       288.249      0.163994      -12.3028       -9.8432             0      -11.4727      -3.96164             0       52.1769       13.9732             0       27.8729             0             0      0.193378   7.28965e-16      0.159227        101890        102986        257448    1.3356e-15
    0.0445445       287.433       288.247      0.162631      -12.1699       -9.2693             0       -11.556      -3.70767             0        55.488       14.5929             0       24.8111             0             0      0.191029   7.41136e-16       0.16944        101898        102994        255564    1.3579e-15
     0.045045       287.454       288.244      0.161076      -11.9979      -8.67898             0      -11.6252      -3.44986             0       58.9083       15.1754             0       21.7649             0             0      0.188737   7.53307e-16      0.179405        101906        103003        253724    1.3802e-15
    0.0455455       287.488       288.238      0.157579      -11.4298       -7.9227             0       -11.551      -3.15314             0       63.4343       15.3822             0       18.8769             0             0      0.187024   7.65482e-16      0.186852        101914        103011        252317   1.40251e-15