#           y             T         TMean   TPrime2Mean           U_x           U_y           U_z       UMean_x       UMean_y       UMean_z UPrime2Mea... UPrime2Mea... UPrime2Mea... UPrime2Mea... UPrime2Mea... UPrime2Mea...            O2           H2O          C3H8             p         pMean   pPrime2Mean           CO2
            0       287.941       288.009      0.061847       24.7877             0             0       22.6962             0             0       5.86205             0             0             0             0             0          0.23   2.70973e-18   8.76615e-08        102585        103123        275967   4.96474e-18
  0.000500501       287.941       288.009     0.0618598       24.8083   -0.00348337             0       22.6985    0.00320046             0        5.8802      0.130951             0     0.0479957             0             0          0.23   2.36487e-17   5.29053e-07        102583        103122        275542   4.33289e-17
     0.001001        287.94       288.009     0.0618722       24.8288   -0.00692986             0       22.7008    0.00640819             0        5.8985      0.261908             0     0.0960954             0             0          0.23   4.55014e-17     9.794e-07        102582        103122        275115   8.33671e-17
    0.0015015        287.94       288.009     0.0617489       24.8045    0.00802812             0       22.6967      0.013242             0       5.99559      0.395533             0      0.196148             0             0      0.229999   5.23295e-16    5.8984e-06        102579        103122        273854   9.58774e-16
     0.002002       287.939       288.009     0.0616251       24.7805     0.0230651             0       22.6927     0.0200544             0       6.09298      0.529298             0      0.296718             0             0      0.229997   1.06456e-15   1.09776e-05        102576        103123        272590   1.95048e-15
    0.0025025        287.94       288.009     0.0613998       24.8219     0.0577683             0        22.694     0.0215169             0        6.2684      0.698194             0      0.526001             0             0      0.229987   1.74108e-14   5.59397e-05        102570        103122        270711   3.18998e-14
     0.003003       287.942       288.009     0.0611753        24.863     0.0926326             0       22.6954     0.0230613             0        6.4454      0.867096             0      0.756032             0             0      0.229977   3.41078e-14   0.000102138        102564        103122        268828   6.24919e-14
    0.0035035       287.963       288.011     0.0610936       24.8425      0.154187             0       22.6856     0.0381756             0       6.88441       1.03699             0        1.1099             0             0      0.229919   1.08926e-13   0.000353157        102557        103122        266313   1.99572e-13
     0.004004       287.985       288.013     0.0615308        24.823      0.216051             0       22.6759     0.0531902             0         7.326       1.20833             0       1.46785             0             0       0.22986   1.92264e-13   0.000609235        102549        103122        263796   3.52264e-13
    0.0045045       288.117       288.039      0.126321       24.9292      0.316275             0       22.6801     0.0558408             0       8.08751       1.55807             0       2.33182             0             0      0.229657   1.33219e-12    0.00149274        102542        103121        261042   2.44082e-12
   0.00500501       288.255       288.066      0.211504       25.0331      0.416771             0       22.6839     0.0587387             0       8.85776       1.90702             0       3.20344             0             0       0.22945   3.04142e-12    0.00239328        102534        103120        258286   5.57246e-12
   0.00550551       288.877       288.227       2.31561       24.9082       0.54422             0       22.6427     0.0861222             0       10.4924       2.17715             0       4.83276             0             0      0.228855   6.11119e-11    0.00497959        102524        103118        255486   1.11968e-10
   0.00600601        289.51       288.393       4.65846       24.7865      0.674548             0       22.6016      0.112878             0       12.1229       2.45438             0        6.4918             0             0      0.228254   1.86443e-10    0.00759091        102513        103117        252692   3.41598e-10
   0.00650651       291.018       288.926       26.6571       24.9197       1.04189             0         22.57     0.0879808             0       13.4063        3.3165             0       10.5975             0             0       0.22718   5.84956e-09     0.0122619        102497        103112        250491   1.07175e-08
   0.00700701       292.637        289.47       50.2214       25.0458       1.40702             0       22.5388      0.064036             0       14.6605       4.17293             0       14.7237             0             0       0.22608   1.90043e-08     0.0170442        102481        103108        248294   3.48194e-08
   0.00750751       302.188       290.795       184.048       24.6661       1.61622             0       22.5265      0.107193             0       13.8618       4.62935             0       20.2956             0             0      0.223176   5.59784e-07     0.0296655        102460        103102        246332   1.02563e-06
   0.00800801       313.252       292.164       330.502       24.2717       1.83443             0        22.504       0.14867             0       13.0515       5.04566             0       25.8773             0             0      0.220248   1.68066e-06     0.0423817        102439        103095        244365   3.07929e-06
   0.00850851       417.382       296.254       1253.49       22.9722       2.60648             0       21.8469     0.0868039             0       11.5265       2.99559             0       32.0534             0             0      0.215894   3.84778e-05     0.0609339        102420        103087        242060   7.04984e-05
   0.00900901       521.442       300.337       2176.66       21.7033       3.39066             0       21.1889     0.0254973             0       10.0078      0.932436             0        38.189             0             0      0.211552   7.51856e-05     0.0794385        102401        103080        239731   0.000137754
   0.00950951       621.726       303.965       3109.69       22.1096       4.83685             0       20.4835    -0.0052958             0       8.83209       -1.8439             0       42.1222             0             0      0.207818   0.000107025     0.0953461        102390        103076        236124    0.00019609
      0.01001        720.27       307.539       4030.06       22.5184       6.25982             0       19.7721    -0.0325343             0       7.68542      -4.58684             0       45.9492             0             0      0.204118   0.000138511      0.111107        102378        103072        232493   0.000253778
    0.0105105       733.553        308.43       4330.06       23.0474       6.54459             0       18.7685      0.114401             0       7.96092      -5.69299             0       44.5737             0             0      0.202116   0.000152682      0.119669        102369        103077        227759   0.000279742
     0.011011        746.82       309.312       4629.16       23.5459       6.81825             0       17.7495      0.260367             0        8.2634      -6.76342             0       43.1169             0             0      0.200082     0.0001672       0.12836        102359        103083        223018   0.000306342
    0.0115115       759.431       309.866       4888.31       22.6862       6.59797             0       16.0481      0.363248             0       9.76556      -6.24578             0       38.0399             0             0      0.196701   0.000197149      0.142755        102350        103092        217921   0.000361215
     0.012012       771.434       310.421        5148.8       21.8138       6.36833             0       14.3482      0.463851             0       11.2375      -5.70461             0       32.9262             0             0      0.193061   0.000225574      0.158288        102341        103100        212835   0.000413293
    0.0125125       758.707       311.045       5464.07       20.4205       5.75791             0        12.716      0.471792             0       11.4818      -4.20658             0       26.3231             0             0      0.178938   0.000191975      0.220039        102333        103108        208218   0.000351735
     0.013013        745.29       311.648        5768.1       19.0438       5.14194             0       11.1081       0.47753             0       11.6873      -2.71628             0       19.7906             0             0      0.164509   0.000157675      0.283126        102325        103115        203635    0.00028889
    0.0135135       706.031       311.432        5651.2       18.2829       4.31836             0        10.411      0.400787             0       10.4377      -1.51527             0        15.905             0             0      0.138637   9.70787e-05      0.396234        102314        103118        200344   0.000177866
     0.014014       666.729       311.178       5517.12       17.5404       3.50898             0       9.73931      0.326655             0       9.19088     -0.341594             0       12.0804             0             0      0.112733   3.76944e-05      0.509468        102303        103121        197077   6.90631e-05
    0.0145145       625.936         309.6       4786.82       17.4361       3.19301             0       9.94952      0.343182             0        8.0429     -0.116713             0       10.3736             0             0     0.0857267   2.03935e-05      0.627066        102288        103123        194651   3.73646e-05
     0.015015       585.668       308.035       4063.24       17.3488       2.87099             0       10.1579      0.358676             0       6.92972       0.10549             0       8.70134             0             0     0.0591632   3.55996e-06      0.742732        102273        103125        192251   6.52251e-06
    0.0155155       562.351       306.866       3557.26       17.8157       2.35318             0        10.307      0.340733             0       6.94139      0.241078             0       8.14791             0             0     0.0469272   1.83886e-06       0.79595        102261        103124        190660   3.36914e-06
     0.016016       538.551       305.655       3046.59        18.255       1.84287             0       10.4712      0.320291             0       7.00753      0.344118             0       7.63084             0             0     0.0353749    1.7049e-07      0.846194        102249        103124        189088    3.1237e-07
    0.0165165       500.169       303.143       2394.05       17.8629       1.55939             0       11.0926      0.224237             0       8.72135     -0.537431             0       8.21362             0             0     0.0445043   9.70999e-08      0.806502        102240        103124        188080   1.77905e-07
     0.017017       461.295       300.592       1740.34       17.4858       1.27591             0       11.7775      0.123193             0       10.4555      -1.44188             0       8.78693             0             0      0.054292   2.58053e-08      0.763948        102232        103123        187076   4.72801e-08
    0.0175175       408.468       296.932       1053.44        17.536      0.992667             0       14.2644     -0.119637             0       12.7665      -2.99713             0       9.09107             0             0     0.0827836    1.4058e-08      0.640071        102225        103123        186154    2.5757e-08
     0.018018       356.618       293.334        384.92       17.6498       0.73417             0       16.7503     -0.354171             0       15.0268      -4.51325             0        9.4009             0             0       0.11139   2.68835e-09      0.515695        102217        103123        185231   4.92556e-09
    0.0185185       330.956         291.4        208.55       19.4647       1.13843             0       19.2051     -0.366561             0       15.9304      -4.98177             0        9.8633             0             0      0.143074   1.42921e-09      0.377938        102207        103122        184256   2.61857e-09
     0.019019       305.982       289.516       38.1863       21.2459       1.52905             0       21.5958     -0.376541             0       16.7864      -5.41998             0       10.3063             0             0      0.174245   2.14135e-10      0.242414        102197        103121        183311   3.92336e-10
    0.0195195       298.426       288.911       19.9102       22.1746       1.57416             0        22.365     -0.325498             0       16.4365      -5.09089             0       10.2589             0             0      0.192414   1.14775e-10      0.163417        102191        103122        183128    2.1029e-10
      0.02002       291.112       288.324       2.32087        23.075        1.5972             0       23.1156     -0.275917             0       16.0821      -4.76127             0       10.2049             0             0      0.210166   1.90394e-11     0.0862347        102186        103122        182961   3.48837e-11
    0.0205205       289.593       288.183       1.21614       23.2961       1.09054             0       23.4196     -0.261416             0       15.6193       -4.4189             0       9.99058             0             0      0.217898   1.02772e-11     0.0526168        102181        103122        183177   1.88298e-11
     0.021021       288.131       288.047       0.15567       23.4987      0.596331             0       23.7077     -0.243115             0       15.1653      -4.06292             0       9.81922             0             0      0.225393    1.8444e-12     0.0200324        102176        103122        183390   3.37929e-12
    0.0215215       287.971       288.026      0.104927       23.2804      0.386002             0       23.6332     -0.138119             0        14.912      -3.39661             0       10.6276             0             0      0.227465   9.25002e-13     0.0110212        102174        103120        183516   1.69478e-12
     0.022022       287.818       288.007     0.0562466       23.0477      0.173592             0       23.5358    -0.0327635             0       14.6812      -2.68324             0       11.4677             0             0      0.229448   4.50603e-14    0.00239973        102172        103119        183651   8.25589e-14
    0.0225225       287.829       288.025     0.0523873       22.5024     -0.084005             0        22.941     0.0803877             0        14.941     -0.947181             0        12.998             0             0      0.229484   2.24482e-14    0.00224403        102169        103116        184008   4.11293e-14
     0.023023       287.841       288.043     0.0486462       21.9084     -0.327309             0       22.2945      0.200012             0       15.2994      0.850788             0       14.5389             0             0      0.229487   8.67168e-16    0.00223027        102166        103113        184358   1.58881e-15
    0.0235235       287.866       288.085     0.0473567       20.3028     -0.274184             0       20.5764      0.453893             0       17.7054       3.93264             0       16.2997             0             0      0.228813   6.69465e-16     0.0051605        102165        103109        184551   1.22658e-15
     0.024024       287.891       288.128     0.0463858       18.5672     -0.195706             0       18.7916      0.701769             0       20.3998       6.94948             0       18.1046             0             0      0.228082   5.62989e-16    0.00833816        102163        103105        184768    1.0315e-15
    0.0245245       287.916       288.184     0.0517356       14.2524      0.385613             0       15.6853      0.830546             0       28.8166       8.67693             0       20.7826             0             0      0.226223   2.26586e-15     0.0164234        102157        103100        185448   4.15148e-15
     0.025025       287.941        288.24     0.0573442       9.93542      0.945381             0       12.5875      0.944151             0       37.4877       10.2185             0       23.5242             0             0      0.224341   4.27043e-15     0.0246047        102150        103094        186125   7.82422e-15
    0.0255255       287.956       288.287     0.0678717       5.57702       1.09571             0       9.65097      0.769463             0       50.9917       8.22804             0       27.4729             0             0       0.22204   1.20072e-14     0.0346104        102135        103088        186735   2.19994e-14
     0.026026       287.971       288.334     0.0782888       1.33708       1.21604             0       6.77291       0.58812             0       64.2586       6.17792             0       31.4153             0             0      0.219796   2.00932e-14     0.0443669        102120        103081        187336   3.68144e-14
    0.0265265       287.977       288.361     0.0866944     -0.743184      0.789348             0       4.96085       0.28544             0       73.2029       3.04008             0       35.2428             0             0      0.218596   3.45461e-14     0.0495814        102102        103073        187765   6.32948e-14
     0.027027       287.981       288.388      0.094834        -2.752      0.365116             0       3.18312    -0.0210789             0       81.6104    -0.0831842             0       39.0203             0             0      0.217437   4.86371e-14      0.054621        102084        103066        188212   8.91122e-14
    0.0275275        287.98       288.405     0.0983133      -3.50924    -0.0161024             0       2.00664     -0.394863             0       80.6148        -2.951             0       41.9209             0             0      0.216983   5.63886e-14     0.0565953        102065        103058        188984   1.03314e-13
     0.028028       287.979       288.422      0.101641      -4.22418     -0.396892             0      0.850272     -0.769572             0       79.2792      -5.79848             0       44.7296             0             0      0.216536   6.33907e-14     0.0585381        102046        103050        189774   1.16144e-13
    0.0285285       287.977       288.434      0.102423      -4.22604     -0.770468             0     0.0328278      -1.15986             0        72.211      -8.30303             0       45.9885             0             0      0.216212   5.77598e-14     0.0599487        102029        103044        190874   1.05827e-13
     0.029029       287.976       288.445      0.103124      -4.22579      -1.13143             0     -0.775583      -1.54732             0       65.0261      -10.7266             0       47.1517             0             0        0.2159   5.17294e-14     0.0613057        102013        103037        191999    9.4778e-14
    0.0295295       287.983       288.452      0.102511      -4.19147      -1.28756             0      -1.43727      -1.88875             0       55.9447      -11.8352             0       46.7611             0             0      0.215788   3.92107e-14     0.0617926        101999        103033        193528   7.18412e-14
      0.03003       287.991       288.459       0.10185      -4.17597      -1.44289             0      -2.09146      -2.22639             0       46.9175      -12.8449             0        46.303             0             0       0.21568   2.68538e-14     0.0622589        101986        103028        195075   4.92011e-14
    0.0305305       288.012       288.464       0.10042      -4.45549      -1.58572             0       -2.6282      -2.50463             0         38.74      -12.3054             0       44.7876             0             0      0.215647   1.70337e-14     0.0624028        101974        103026        196907   3.12089e-14
     0.031031       288.033        288.47      0.099019      -4.74445      -1.72416             0      -3.15744      -2.77717             0       30.7963       -11.686             0        43.227             0             0      0.215614   7.65071e-15     0.0625482        101962        103023        198762   1.40175e-14
    0.0315315       288.056       288.473     0.0980536      -5.17634      -1.79619             0      -3.57317      -2.96324             0       26.3915      -9.85627             0       40.9837             0             0      0.215576   4.88147e-15     0.0627145        101950        103024        200957   8.94376e-15
     0.032032       288.079       288.476     0.0971521      -5.58745      -1.86451             0      -3.97809      -3.14406             0         22.24      -8.00786             0       38.7195             0             0       0.21554   2.26261e-15     0.0628707        101938        103024        203184   4.14552e-15
    0.0325325        288.09       288.478     0.0971847      -5.69455      -1.87852             0      -4.22477      -3.24801             0       21.7932      -5.88555             0       36.1502             0             0      0.215538    1.8431e-15     0.0628796        101927        103027        205863    3.3769e-15
     0.033033         288.1       288.478     0.0972514      -5.78607      -1.88715             0      -4.45954      -3.34723             0       21.4774      -3.79155             0       33.5758             0             0      0.215546    1.4444e-15     0.0628425        101916        103030        208598    2.6464e-15
    0.0335335       288.094       288.478     0.0978002       -5.6571      -1.81967             0       -4.5258      -3.37973             0       23.0161      -2.09824             0        30.929             0             0      0.215704   1.34014e-15     0.0621555        101905        103034        212127   2.45539e-15
     0.034034       288.088       288.478     0.0983243      -5.52957      -1.74735             0      -4.58164      -3.40927             0       24.5571     -0.440653             0       28.2959             0             0      0.215879   1.24045e-15     0.0613963        101895        103038        215693   2.27274e-15
    0.0345345       288.065       288.479     0.0985084      -5.42172      -1.60879             0      -4.49463      -3.39808             0       26.1304      0.727363             0       25.8503             0             0      0.216281   1.20337e-15     0.0596475        101886        103043        219769    2.2048e-15
     0.035035       288.041        288.48     0.0985944      -5.31079      -1.46488             0      -4.40069      -3.38417             0       27.6344       1.86159             0       23.4241             0             0      0.216689   1.16803e-15     0.0578731        101877        103047        223859   2.14004e-15
    0.0355355        288.01       288.484     0.0973776      -5.15883         -1.25             0       -4.2146      -3.33408             0       28.2179        2.5469             0       21.2539             0             0      0.217175    1.1557e-15     0.0557594        101868        103051        228147   2.11746e-15
     0.036036       287.979       288.487     0.0960333      -4.99315      -1.03238             0      -4.02295      -3.28111             0       28.6984       3.18893             0       19.1056             0             0      0.217654   1.14396e-15     0.0536799        101859        103054        232413   2.09595e-15
    0.0365365       287.954       288.494     0.0930474      -4.65073     -0.779612             0      -3.75948      -3.19094             0         27.85         3.273             0       17.2393             0             0       0.21803    1.1398e-15     0.0520415        101851        103057        236392   2.08832e-15
     0.037037       287.929       288.501     0.0900749      -4.30027     -0.525615             0      -3.49222      -3.09757             0       26.9166       3.31851             0       15.4012             0             0      0.218402   1.13588e-15     0.0504243        101844        103060        240335   2.08114e-15
    0.0375375       287.909        288.51     0.0872716      -3.84917     -0.256272             0      -3.17759      -2.96408             0       24.9186       2.88137             0       13.9158             0             0      0.218713   1.13495e-15     0.0490729        101836        103062        243829   2.07945e-15
     0.038038       287.889       288.518     0.0845594      -3.39197     0.0155127             0      -2.86023      -2.82835             0       22.9086       2.43296             0       12.4623             0             0      0.219019   1.13426e-15     0.0477431        101829        103064        247277   2.07818e-15
    0.0385385       287.873       288.526     0.0829549      -2.86065      0.316989             0      -2.50958       -2.6654             0       20.7521        1.8473             0       11.3964             0             0      0.219264   1.13636e-15      0.046677        101822        103065        250176   2.08203e-15
     0.039039       287.857       288.534      0.081425      -2.32194       0.61905             0      -2.15778      -2.50137             0       18.6421       1.26971             0       10.3552             0             0      0.219505    1.1388e-15     0.0456304        101815        103067        253037   2.08649e-15
    0.0395395        287.85       288.539      0.080776      -1.69582       0.92802             0      -1.79218      -2.32452             0       17.0822      0.787379             0       9.60715             0             0      0.219693   1.14524e-15     0.0448145        101809        103068        255445    2.0983e-15
      0.04004       287.844       288.545     0.0802223      -1.06136       1.23437             0      -1.42552      -2.14776             0       15.5715      0.314408             0       8.86989             0             0      0.219876   1.15185e-15     0.0440173        101803        103068        257811   2.11041e-15
    0.0405405       287.845       288.548      0.080764     -0.330958       1.51058             0      -1.04651      -1.97217             0       14.6267    -0.0509098             0       8.25663             0             0       0.22001    1.1604e-15     0.0434361        101798        103069        259707   2.12607e-15
     0.041041       287.847       288.552     0.0813359      0.402433       1.78441             0     -0.665706      -1.79705             0       13.7019     -0.407059             0       7.64637             0             0      0.220129   1.16871e-15     0.0429164        101793        103070        261570   2.14129e-15
    0.0415415       287.855       288.555     0.0822458       1.16929       2.03169             0     -0.264888      -1.62717             0       13.0002      -0.66057             0       7.06967             0             0       0.22009    1.1743e-15     0.0430856        101790        103071        263066   2.15154e-15
     0.042042       287.864       288.559     0.0831404       1.93821       2.27064             0      0.137491      -1.45828             0       12.3187     -0.900016             0       6.49199             0             0      0.220041   1.17971e-15      0.043302        101788        103072        264525   2.16144e-15
    0.0425425       287.876       288.563     0.0838682       2.72974       2.41882             0      0.556906      -1.30031             0       11.8578     -0.986096             0       5.90372             0             0      0.219872   1.18312e-15      0.044033        101787        103074        265575    2.1677e-15
     0.043043       287.889       288.567     0.0845845       3.51781       2.55928             0      0.975566      -1.14366             0       11.4473      -1.05912             0       5.31636             0             0      0.219698   1.18667e-15     0.0447922        101786        103075        266591    2.1742e-15
    0.0435435       287.902       288.571     0.0851773       4.26916       2.61763             0        1.3862      -1.00109             0       11.5735     -0.993374             0       4.73877             0             0      0.219454    1.1917e-15     0.0458518        101787        103077        267243   2.18343e-15
     0.044044       287.916       288.574      0.085707       5.01688        2.6654             0       1.79491     -0.860125             0       11.7559     -0.918842             0       4.16573             0             0      0.219199   1.19706e-15     0.0469618        101788        103078        267866   2.19323e-15
    0.0445445       287.932       288.577     0.0855821       5.72699       2.60342             0       2.18362     -0.735731             0       12.5208     -0.753246             0       3.63982             0             0      0.218824   1.20571e-15     0.0485933        101790        103080        268192   2.20909e-15
     0.045045       287.949       288.579     0.0852904       6.42831        2.5329             0       2.56755      -0.61359             0       13.3216     -0.586319             0       3.11957             0             0      0.218442   1.21457e-15     0.0502516        101792        103082        268505   2.22532e-15
    0.0455455       287.967        288.58     0.0833126       7.04076       2.37594             0       2.90323     -0.514215             0       14.4852      -0.40595             0       2.65647             0             0      0.217998    1.2255e-15     0.0521816        101795        103085        268686   2.24534e-15