#           y             T         TMean   TPrime2Mean           U_x           U_y           U_z       UMean_x       UMean_y       UMean_z UPrime2Mea... UPrime2Mea... UPrime2Mea... UPrime2Mea... UPrime2Mea... UPrime2Mea...            O2           H2O          C3H8             p         pMean   pPrime2Mean           CO2
  1.11022e-19       287.507       288.174      0.187507       22.3429  -9.28211e-17             0       16.8571   7.03985e-18             0       41.5962  -2.54464e-17             0   2.48685e-17             0             0      0.219351   1.71776e-16     0.0463007        102454        103170        269249   3.14725e-16
  0.000500501       287.555       288.176      0.190738       22.2099     -0.418448             0       16.8631     0.0317364             0       41.5292     -0.114715             0       0.11211             0             0      0.211077   2.49709e-16     0.0822733        102454        103170        269238   4.57514e-16
     0.001001       287.603       288.178      0.193984       22.0761     -0.836764             0       16.8691     0.0634735             0       41.4618     -0.229389             0      0.224489             0             0      0.202784   3.27767e-16       0.11833        102454        103169        269227    6.0053e-16
    0.0015015         287.8       288.184      0.204141       21.5906      -1.18983             0       16.8763     0.0955868             0       41.2196     -0.323288             0      0.471373             0             0      0.184819   4.67531e-16      0.196437        102454        103169        269198   8.56604e-16
     0.002002       287.997       288.191       0.21431       21.1042      -1.54248             0       16.8835      0.127701             0       40.9759      -0.41696             0      0.718761             0             0      0.166872   6.07076e-16      0.274472        102454        103169        269168   1.11228e-15
    0.0025025       288.208       288.202      0.227406       20.3728      -1.78909             0       16.8603      0.160029             0       40.3758      -0.45396             0       1.09156             0             0      0.153078   6.92047e-16      0.334444        102454        103168        269180   1.26796e-15
     0.003003       288.419       288.213      0.240478        19.643      -2.03555             0       16.8368      0.192358             0       39.7728     -0.490538             0       1.46493             0             0      0.139338    7.7668e-16      0.394183        102453        103168        269192   1.42302e-15
    0.0035035       288.489        288.23      0.249673       19.1838      -2.25819             0       16.7669      0.224784             0        38.709     -0.457141             0       1.93451             0             0      0.134496   8.05529e-16      0.415237        102452        103167        269222   1.47588e-15
     0.004004       288.559       288.247      0.258835       18.7278      -2.48097             0       16.6967      0.257213             0       37.6441     -0.423493             0       2.40471             0             0      0.129688   8.34254e-16      0.436137        102451        103167        269253   1.52851e-15
    0.0045045       288.573       288.266      0.264014       18.6595      -2.72094             0       16.5963      0.290071             0       36.4461     -0.358756             0       2.95204             0             0      0.129249   8.47452e-16      0.438047        102450        103166        269287   1.55269e-15
   0.00500501       288.587       288.285      0.269177       18.5899      -2.96001             0       16.4959      0.322918             0       35.2511     -0.294137             0       3.50007             0             0      0.128836   8.60715e-16      0.439842        102448        103165        269321   1.57699e-15
   0.00550551       288.609         288.3       0.27268       18.3925      -3.11059             0       16.3865      0.354594             0        34.349      -0.24118             0       4.11696             0             0      0.131055   8.80413e-16      0.430196        102447        103164        269410   1.61308e-15
   0.00600601       288.631       288.315      0.276169       18.1924      -3.26028             0       16.2772      0.386208             0       33.4514     -0.189531             0       4.73506             0             0      0.133312   9.00158e-16      0.420384        102445        103164        269500   1.64926e-15
   0.00650651       288.628       288.326      0.278545       17.7743      -3.33613             0       16.1784      0.412726             0       32.9203     -0.245543             0       5.45289             0             0      0.138712   9.23907e-16      0.396904        102443        103163        269608   1.69277e-15
   0.00700701       288.624       288.337      0.280904         17.36      -3.41425             0         16.08      0.439119             0        32.395     -0.304832             0       6.17311             0             0      0.144135   9.47741e-16      0.373325        102441        103162        269717   1.73644e-15
   0.00750751       288.552       288.344      0.282076       17.2124      -3.65192             0       16.0132      0.456736             0       32.2736     -0.594836             0       7.06164             0             0      0.151163   9.77647e-16      0.342772        102440        103161        269859   1.79123e-15
   0.00800801       288.479        288.35        0.2832       17.0707      -3.89363             0        15.947      0.474349             0       32.1592     -0.886385             0       7.95308             0             0      0.158177    1.0078e-15      0.312275        102438        103160        270004   1.84648e-15
   0.00850851       288.387        288.35      0.281362       17.2933      -4.38308             0        15.913      0.491679             0       32.4813       -1.2729             0       9.02318             0             0      0.164392   1.05316e-15      0.285252        102437        103159        270280   1.92958e-15
   0.00900901       288.295        288.35      0.279463       17.5149      -4.87233             0       15.8788      0.509223             0       32.8047      -1.65521             0       10.0949             0             0      0.170575   1.09858e-15       0.25837        102437        103158        270559    2.0128e-15
   0.00950951       288.232       288.348       0.27423       17.6733      -5.35014             0       15.8388      0.538466             0       33.2045      -1.80794             0       11.2544             0             0      0.174996   1.14758e-15      0.239146        102436        103156        270994   2.10259e-15
      0.01001        288.17       288.346      0.268993       17.8251      -5.82334             0       15.7979      0.567984             0        33.599      -1.95397             0       12.4144             0             0      0.179382   1.19626e-15      0.220076        102435        103155        271432   2.19178e-15
    0.0105105       288.127       288.347      0.263602       17.6524      -6.07041             0        15.711      0.610993             0       33.7345      -1.77138             0       13.5945             0             0      0.182035    1.2291e-15      0.208545        102434        103154        271989   2.25194e-15
     0.011011       288.084       288.347      0.258257       17.4763      -6.31503             0       15.6228      0.654141             0       33.8687      -1.58391             0       14.7755             0             0      0.184656   1.26153e-15      0.197147        102433        103152        272548   2.31136e-15
    0.0115115       288.058       288.353      0.254946       17.1518      -6.45042             0       15.4771       0.70343             0       33.9444      -1.17966             0        15.996             0             0      0.185916   1.27634e-15      0.191671        102432        103150        273250   2.33849e-15
     0.012012       288.033       288.358      0.251653       16.8297      -6.58734             0       15.3298       0.75273             0       34.0265      -0.77218             0       17.2173             0             0      0.187161   1.29094e-15      0.186258        102430        103148        273956   2.36525e-15
    0.0125125       288.016       288.365       0.24912       16.6054      -6.78667             0       15.1201      0.802507             0       34.3694      -0.23331             0       18.4741             0             0      0.187822   1.29755e-15      0.183384        102429        103146        274819   2.37736e-15
     0.013013       287.999       288.373      0.246616       16.3849      -6.98834             0       14.9086      0.852152             0       34.7188      0.306377             0       19.7303             0             0      0.188477    1.3041e-15      0.180534        102428        103144        275687   2.38936e-15
    0.0135135       287.985       288.381      0.245189       16.3077      -7.27787             0       14.6272      0.896819             0       35.3102      0.876718             0       20.9651             0             0      0.188921   1.30844e-15      0.178606        102427        103142        276794    2.3973e-15
     0.014014       287.972        288.39      0.243812       16.2329      -7.56905             0       14.3443      0.941079             0       35.9054        1.4437             0       22.1981             0             0      0.189358   1.31275e-15      0.176706        102425        103140        277908    2.4052e-15
    0.0145145       287.966       288.396      0.244157       16.2426      -7.91759             0       14.0068      0.971211             0       36.6316       1.89394             0        23.371             0             0      0.189567   1.31629e-15      0.175795        102424        103138        279297   2.41168e-15
     0.015015       287.959       288.402      0.244535       16.2528      -8.26628             0       13.6684       1.00071             0       37.3558       2.33861             0       24.5417             0             0      0.189775   1.31993e-15       0.17489        102422        103136        280694   2.41837e-15
    0.0155155       287.956       288.406      0.245961       16.2795      -8.61937             0       13.3025        1.0098             0       38.0207       2.60327             0       25.6411             0             0      0.189949   1.32708e-15      0.174134        102420        103135        282341   2.43147e-15
     0.016016       287.954       288.409      0.247372       16.3057      -8.97167             0       12.9364       1.01829             0       38.6732        2.8636             0       26.7386             0             0      0.190125    1.3344e-15      0.173371        102418        103133        283998   2.44487e-15
    0.0165165       287.954       288.409      0.248321       16.3131      -9.29994             0       12.5663       1.00888             0        38.953       2.99333             0       27.7817             0             0      0.190356   1.34672e-15      0.172363        102416        103131        285930   2.46745e-15
     0.017017       287.954        288.41       0.24916       16.3192      -9.62708             0       12.1968      0.999186             0       39.2163       3.12132             0       28.8234             0             0      0.190587   1.35902e-15      0.171362        102414        103129        287868   2.48999e-15
    0.0175175       287.958       288.407      0.246864       16.2917      -9.92193             0       11.8449      0.981669             0       39.0106       3.19961             0       29.8273             0             0      0.190774   1.37066e-15       0.17055        102413        103127        289948   2.51131e-15
     0.018018       287.962       288.404      0.244484       16.2619      -10.2147             0       11.4939       0.96414             0       38.7862       3.27697             0       30.8309             0             0      0.190957   1.38214e-15      0.169753        102411        103126        292032   2.53235e-15
    0.0185185       287.969       288.397      0.239832       16.1721      -10.4522             0       11.1657      0.946266             0       38.0616       3.32957             0       31.8278             0             0      0.191041    1.3894e-15      0.169387        102410        103124        294222   2.54563e-15
     0.019019       287.976       288.391       0.23526       16.0793       -10.687             0        10.838      0.928377             0       37.3161       3.38013             0       32.8265             0             0      0.191123   1.39654e-15      0.169031        102409        103123        296413   2.55873e-15
    0.0195195       287.982       288.386      0.232722       15.9104       -10.854             0       10.5257      0.910103             0       36.0414         3.379             0       33.8748             0             0       0.19115   1.40103e-15      0.168914        102409        103121        298637   2.56694e-15
      0.02002       287.988       288.381      0.230255       15.7383       -11.018             0       10.2139      0.891717             0       34.7522       3.37505             0       34.9261             0             0      0.191175   1.40551e-15      0.168803        102408        103120        300855   2.57516e-15
    0.0205205       287.995       288.384      0.229521       15.4895      -11.1122             0       9.91504       0.87065             0       33.1159       3.30351             0       36.0485             0             0      0.191172   1.40999e-15      0.168817        102408        103118        302931   2.58336e-15
     0.021021       288.002       288.386       0.22879       15.2377      -11.2035             0       9.61664      0.849464             0       31.4749        3.2284             0       37.1727             0             0      0.191168   1.41454e-15      0.168834        102408        103117        304997    2.5917e-15
    0.0215215        288.01       288.396      0.228164       14.9174      -11.2301             0       9.32964      0.825545             0       29.7276       3.07168             0       38.3374             0             0      0.191149   1.42074e-15      0.168917        102408        103116        306844   2.60306e-15
     0.022022       288.018       288.405      0.227612       14.5948      -11.2545             0       9.04284      0.801485             0        27.985       2.91099             0       39.5009             0             0       0.19113   1.42694e-15      0.169001        102408        103114        308675   2.61442e-15
    0.0225225       288.025       288.417       0.22867        14.221      -11.2288             0       8.76048      0.774346             0       26.3431       2.66422             0       40.6396             0             0      0.191103   1.43311e-15      0.169117        102408        103113        310133   2.62572e-15
     0.023023       288.032       288.429      0.229787       13.8456      -11.2014             0       8.47815      0.746923             0       24.7128       2.41439             0       41.7738             0             0      0.191076   1.43909e-15      0.169235        102408        103112        311570   2.63668e-15
    0.0235235       288.037       288.439      0.232148       13.4386      -11.1397             0       8.19633       0.71362             0       23.3225       2.10122             0       42.8171             0             0      0.191037   1.44128e-15      0.169405        102409        103111        312579   2.64069e-15
     0.024024       288.041       288.449      0.234587       13.0309      -11.0769             0       7.91495       0.67988             0       21.9472       1.78695             0       43.8537             0             0      0.190998   1.44328e-15      0.169576        102409        103110        313564   2.64436e-15
    0.0245245       288.044       288.459      0.238554       12.6085       -10.993             0       7.64236      0.637473             0       20.8704       1.45103             0       44.7565             0             0      0.190953   1.44165e-15      0.169771        102410        103110        314080   2.64137e-15
     0.025025       288.047       288.468      0.242526       12.1859      -10.9085             0       7.37092      0.594678             0       19.8128       1.11512             0       45.6513             0             0      0.190909   1.43995e-15      0.169963        102410        103109        314568   2.63825e-15
    0.0255255       288.049       288.478      0.246586       11.7613      -10.8116             0       7.12128      0.544492             0       19.1203      0.779517             0       46.3941             0             0      0.190874   1.43688e-15      0.170112        102410        103109        314517   2.63263e-15
     0.026026        288.05       288.488      0.250478        11.337      -10.7141             0       6.87309      0.494105             0       18.4514      0.442914             0       47.1284             0             0       0.19084   1.43377e-15      0.170259        102411        103109        314436   2.62694e-15
    0.0265265       288.051       288.497      0.251326       10.9184      -10.6078             0        6.6515      0.440037             0        18.213     0.0881386             0       47.7071             0             0      0.190813   1.43003e-15      0.170379        102411        103109        313815   2.62009e-15
     0.027027       288.052       288.506       0.25199       10.5003       -10.501             0       6.43135      0.385921             0       18.0012     -0.269707             0        48.277             0             0      0.190785    1.4263e-15      0.170499        102411        103109        313166   2.61325e-15
    0.0275275       288.052       288.513      0.249422       10.0914      -10.3866             0       6.23634      0.330975             0       18.2548     -0.681337             0       48.6931             0             0       0.19076   1.42268e-15      0.170608        102412        103109        312022   2.60662e-15
     0.028028       288.052        288.52      0.246755       9.68318      -10.2717             0       6.04279      0.276073             0       18.5333      -1.09704             0       49.0996             0             0      0.190735   1.41913e-15      0.170716        102412        103109        310856   2.60012e-15
    0.0285285       288.051       288.523      0.242436        9.2851      -10.1494             0       5.87388      0.221928             0       19.2309      -1.58136             0       49.3427             0             0      0.190718    1.4168e-15      0.170791        102413        103109        309303   2.59585e-15
     0.029029        288.05       288.527      0.238162       8.88756      -10.0265             0        5.7065      0.167851             0       19.9455       -2.0687             0       49.5734             0             0      0.190701   1.41459e-15      0.170865        102413        103110        307737   2.59179e-15
    0.0295295       288.049       288.527      0.234607       8.49861      -9.89495             0       5.56406      0.114866             0       20.9375      -2.60502             0       49.6034             0             0      0.190687   1.41426e-15      0.170926        102414        103110        305946   2.59118e-15
      0.03003       288.047       288.527      0.231101       8.10997      -9.76266             0       5.42289     0.0620891             0       21.9375       -3.1421             0       49.6168             0             0      0.190673   1.41407e-15      0.170989        102414        103111        304146   2.59085e-15
    0.0305305       288.045       288.526      0.228364       7.72633      -9.61849             0       5.30149     0.0125483             0       23.0608      -3.69095             0       49.3709             0             0      0.190649   1.41629e-15      0.171091        102415        103112        302205   2.59491e-15
     0.031031       288.043       288.525      0.225591       7.34279      -9.47316             0       5.18078    -0.0364536             0       24.1841      -4.23754             0       49.1049             0             0      0.190624   1.41876e-15        0.1712        102416        103113        300258   2.59944e-15
    0.0315315        288.04       288.524      0.222261       6.96077       -9.3104             0       5.07053    -0.0773024             0        25.308      -4.74982             0       48.5334             0             0      0.190575    1.4251e-15      0.171413        102417        103115        298215   2.61104e-15
     0.032032       288.037       288.522      0.218871       6.57876      -9.14608             0       4.96116     -0.117372             0       26.4254      -5.25814             0       47.9406             0             0      0.190525   1.43175e-15      0.171632        102418        103116        296172   2.62324e-15
    0.0325325       288.035       288.521      0.214617       6.19704      -8.95877             0       4.86459      -0.14605             0       27.4499      -5.70846             0        47.035             0             0      0.190454   1.44316e-15      0.171939        102419        103118        294134   2.64413e-15
     0.033033       288.032       288.519      0.210297       5.81567      -8.76968             0       4.76982     -0.173968             0       28.4696      -6.15734             0       46.1118             0             0      0.190383   1.45476e-15      0.172249        102420        103119        292100   2.66539e-15
    0.0335335       288.027       288.519      0.205057       5.43926      -8.55539             0       4.70033     -0.191141             0        29.422      -6.58591             0       44.9407             0             0      0.190297    1.4692e-15      0.172622        102421        103121        290119   2.69184e-15
     0.034034       288.023       288.518      0.199809       5.06424      -8.33967             0       4.63329     -0.207843             0       30.3801      -7.01342             0       43.7573             0             0      0.190209   1.48382e-15      0.173004        102421        103123        288149   2.71863e-15
    0.0345345       288.016       288.518      0.194457       4.70813       -8.1044             0       4.59976     -0.218105             0       31.4159       -7.4265             0       42.4052             0             0       0.19009   1.50095e-15       0.17352        102422        103125        286335   2.75002e-15
     0.035035       288.008       288.518      0.189151       4.35513       -7.8688             0       4.56909     -0.228245             0       32.4597      -7.83348             0        41.044             0             0      0.189969   1.51824e-15      0.174047        102423        103127        284536    2.7817e-15
    0.0355355       287.997       288.517      0.184466       4.04353      -7.62882             0       4.57635     -0.236757             0       33.6078      -8.15947             0       39.5612             0             0      0.189818    1.5377e-15      0.174703        102424        103129        282917   2.81735e-15
     0.036036       287.986       288.516       0.17979       3.73682      -7.39007             0       4.58612      -0.24496             0       34.7681       -8.4798             0       38.0725             0             0      0.189666    1.5572e-15      0.175364        102425        103131        281309   2.85309e-15
    0.0365365        287.97       288.517      0.175221       3.49324      -7.16709             0       4.62833     -0.249178             0       36.0855      -8.72716             0       36.5085             0             0      0.189499   1.57738e-15      0.176091        102425        103133        279841   2.89005e-15
     0.037037       287.953       288.517      0.170699       3.25536      -6.94642             0        4.6722     -0.252728             0       37.4261      -8.97529             0       34.9396             0             0      0.189331   1.59751e-15      0.176821        102426        103135        278390   2.92694e-15
    0.0375375       287.931       288.517       0.16675       3.08891      -6.75463             0       4.73689     -0.247926             0       39.0575      -9.23309             0       33.3088             0             0      0.189153   1.61714e-15      0.177595        102427        103138        277140    2.9629e-15
     0.038038       287.909       288.518      0.163021       2.92765      -6.56494             0       4.80326     -0.242605             0       40.6939      -9.49531             0       31.6747             0             0      0.188974   1.63649e-15      0.178373        102428        103140        275907   2.99836e-15
    0.0385385       287.886       288.516      0.161957       2.82962      -6.40057             0       4.88997     -0.230988             0       42.3911      -9.81111             0       30.0012             0             0      0.188785   1.65248e-15      0.179195        102429        103142        274874   3.02765e-15
     0.039039       287.863       288.514      0.161165       2.73578      -6.23674             0       4.97862     -0.219198             0        44.057      -10.1275             0       28.3289             0             0      0.188595    1.6682e-15      0.180021        102431        103144        273857   3.05646e-15
    0.0395395       287.843       288.507      0.163587       2.69136      -6.07924             0       5.09023     -0.205372             0       45.3534      -10.4512             0       26.6704             0             0      0.188391   1.68079e-15      0.180906        102432        103147        273027   3.07951e-15
      0.04004       287.824       288.501      0.166186       2.65088      -5.92061             0       5.20245      -0.19159             0       46.6211      -10.7684             0       25.0153             0             0      0.188186    1.6932e-15        0.1818        102433        103149        272224   3.10225e-15
    0.0405405        287.81       288.491       0.17083        2.6559      -5.74902             0       5.32156     -0.178328             0       47.5568      -11.0101             0       23.4011             0             0      0.187961   1.70364e-15      0.182778        102434        103151        271728   3.12138e-15
     0.041041       287.796       288.481      0.175548       2.66514      -5.57543             0       5.43838     -0.165045             0       48.5008      -11.2441             0       21.7904             0             0      0.187734   1.71395e-15      0.183766        102436        103153        271252   3.14027e-15
    0.0415415       287.786       288.469      0.181087       2.72181      -5.37955             0       5.52946      -0.15152             0       49.5381      -11.3915             0       20.2197             0             0      0.187485   1.72277e-15      0.184847        102437        103155        271003   3.15644e-15
     0.042042       287.776       288.457      0.186573       2.78262      -5.18165             0       5.61687     -0.137998             0       50.5849       -11.526             0       18.6503             0             0      0.187238   1.73147e-15      0.185921        102439        103157        270766   3.17237e-15
    0.0425425       287.768       288.445      0.191472       2.88873      -4.96172             0       5.66418     -0.124506             0       51.7364      -11.5212             0       17.0951             0             0      0.187009    1.7387e-15      0.186919        102440        103159        270662   3.18563e-15
     0.043043       287.762       288.433      0.196267       2.99786      -4.73958             0       5.70859     -0.111507             0       52.8407      -11.4895             0       15.5383             0             0      0.186786   1.74577e-15      0.187887        102442        103161        270575   3.19857e-15
    0.0435435       287.759       288.424       0.19996       3.13915      -4.49382             0       5.72202     -0.103746             0       53.4446      -11.1715             0       13.9646             0             0      0.186638   1.75095e-15       0.18853        102444        103163        270666   3.20806e-15
     0.044044       287.756       288.416      0.203632       3.28274      -4.24556             0       5.73185     -0.096891             0       53.9752      -10.8227             0       12.3938             0             0      0.186494   1.75608e-15      0.189155        102445        103165        270766   3.21747e-15
    0.0445445       287.757        288.41      0.207082       3.45012      -3.97131             0       5.70429    -0.0994275             0       53.7463      -10.1535             0       10.8538             0             0      0.186398    1.7607e-15      0.189575        102447        103167        270948   3.22593e-15
     0.045045       287.758       288.404      0.210362       3.61986      -3.69355             0        5.6709     -0.102105             0       53.4861      -9.45997             0       9.32442             0             0      0.186294   1.76562e-15      0.190024        102448        103169        271136   3.23494e-15
    0.0455455       287.763       288.397      0.211933       3.81347      -3.38039             0       5.57857     -0.106209             0       52.9093      -8.52039             0       7.90361             0             0      0.186125   1.77357e-15       0.19076        102450        103170        271389   3.24951e-15