#           y             T         TMean   TPrime2Mean           U_x           U_y           U_z       UMean_x       UMean_y       UMean_z UPrime2Mea... UPrime2Mea... UPrime2Mea... UPrime2Mea... UPrime2Mea... UPrime2Mea...            O2           H2O          C3H8             p         pMean   pPrime2Mean           CO2
  1.11022e-19       288.513       288.559     0.0951625       7.24234  -3.26068e-18             0       12.6281  -7.40619e-19             0       34.7857    4.5845e-18             0   6.80729e-18             0             0      0.188327   2.52572e-15      0.181188        102705        103139        288024   4.62759e-15
  0.000500501       288.579       288.567     0.0939034       7.06848    -0.0146995             0       12.5865   -0.00333879             0       34.3344     0.0206674             0      0.030688             0             0      0.189321   2.50385e-15      0.176866        102705        103139        288031   4.58751e-15
     0.001001       288.645       288.576     0.0926518       6.89452    -0.0294755             0       12.5447    -0.0066787             0       33.8815     0.0414237             0     0.0614649             0             0      0.190315   2.48195e-15      0.172545        102705        103139        288038    4.5474e-15
    0.0015015       288.813       288.591     0.0950931       6.67309    -0.0824526             0        12.453    -0.0105734             0       32.6022      0.106501             0      0.136633             0             0      0.191095   2.45048e-15      0.169151        102705        103139        288035   4.48973e-15
     0.002002        288.98       288.606     0.0975593       6.45229     -0.135625             0       12.3613    -0.0144719             0       31.3219       0.17164             0      0.212004             0             0       0.19187   2.41907e-15      0.165784        102704        103138        288031   4.43219e-15
    0.0025025       289.115       288.615      0.106239       6.39098     -0.237348             0       12.2777     -0.019351             0       29.7989      0.252326             0      0.337855             0             0      0.191147   2.40591e-15      0.168927        102703        103138        288014   4.40807e-15
     0.003003       289.249       288.623      0.114917       6.32898     -0.338966             0       12.1943    -0.0242356             0       28.2779      0.332894             0       0.46399             0             0      0.190425   2.39279e-15      0.172064        102702        103138        287997   4.38404e-15
    0.0035035       289.287       288.627      0.123275       6.15425     -0.423296             0       12.1369    -0.0300392             0       27.0989      0.393791             0      0.637007             0             0      0.189911   2.38735e-15      0.174298        102701        103138        288011   4.37408e-15
     0.004004       289.324        288.63      0.131592       5.97685     -0.507038             0       12.0795    -0.0358458             0       25.9225      0.454613             0      0.810344             0             0      0.189406   2.38194e-15      0.176495        102700        103138        288025   4.36416e-15
    0.0045045       289.325       288.633      0.134814       5.46705     -0.517963             0       12.0301    -0.0420254             0       25.0753      0.506176             0       1.02328             0             0      0.189967   2.38001e-15      0.174055        102699        103137        288013   4.36062e-15
   0.00500501       289.326       288.636      0.137945       4.95478     -0.528309             0       11.9806    -0.0482089             0       24.2302       0.55788             0       1.23657             0             0      0.190533   2.37811e-15      0.171594        102697        103137        288001   4.35715e-15
   0.00550551       289.319       288.643       0.13212       4.19797     -0.481413             0        11.926    -0.0547743             0       23.6063      0.623491             0       1.48388             0             0      0.191552   2.38008e-15      0.167164        102695        103137        287988   4.36075e-15
   0.00600601       289.313        288.65      0.126234       3.44122     -0.434618             0       11.8714    -0.0613612             0       22.9849      0.689292             0       1.73161             0             0      0.192567   2.38209e-15      0.162752        102692        103136        287975   4.36444e-15
   0.00650651       289.304        288.66      0.115347       2.68896     -0.396136             0       11.8165    -0.0697158             0       22.5729      0.770726             0       2.01458             0             0      0.193215    2.3877e-15      0.159935        102689        103136        287964    4.3747e-15
   0.00700701       289.295        288.67       0.10451       1.93877     -0.357925             0       11.7617    -0.0781054             0        22.164      0.852193             0       2.29814             0             0      0.193857   2.39332e-15      0.157143        102685        103136        287953   4.38501e-15
   0.00750751        289.28       288.676     0.0971653       1.33412     -0.338867             0       11.7153    -0.0889542             0       21.9795      0.935996             0       2.62292             0             0       0.19408   2.40069e-15      0.156176        102680        103135        287950   4.39852e-15
   0.00800801       289.265       288.682     0.0898827      0.733341     -0.320132             0       11.6691    -0.0998385             0       21.7974       1.01977             0       2.94847             0             0      0.194297   2.40813e-15      0.155231        102675        103135        287947   4.41214e-15
   0.00850851       289.229       288.684      0.086424       0.37061     -0.321267             0       11.6313     -0.112897             0        21.768       1.10168             0       3.32063             0             0      0.194186   2.41933e-15      0.155714        102669        103134        287959   4.43267e-15
   0.00900901       289.193       288.686      0.082985      0.014205     -0.323069             0       11.5937     -0.125982             0       21.7383       1.18348             0       3.69367             0             0      0.194071   2.43052e-15      0.156212        102662        103134        287972   4.45316e-15
   0.00950951       289.147       288.685      0.080625    0.00294042     -0.361302             0       11.5609      -0.14057             0       21.6892       1.25905             0        4.1149             0             0       0.19376   2.44028e-15      0.157567        102655        103134        288009   4.47104e-15
      0.01001       289.101       288.685     0.0782775   -0.00171767     -0.400338             0       11.5281     -0.155175             0       21.6372       1.33412             0       4.53711             0             0      0.193447   2.44989e-15      0.158928        102647        103133        288046   4.48866e-15
    0.0105105       289.064       288.684      0.076544      0.317342      -0.47871             0       11.4977     -0.170629             0       21.4363       1.38412             0       5.00714             0             0      0.193072   2.45254e-15      0.160557        102639        103133        288106   4.49351e-15
     0.011011       289.026       288.683     0.0748219      0.640884     -0.557693             0       11.4673     -0.186093             0       21.2313       1.43306             0       5.47818             0             0       0.19269   2.45512e-15      0.162216        102631        103132        288166   4.49823e-15
    0.0115115       288.977       288.682     0.0736079       1.16372     -0.663821             0       11.4372     -0.201997             0       20.8413       1.43503             0       5.99453             0             0      0.192006   2.45447e-15      0.165192        102624        103132        288218   4.49705e-15
     0.012012       288.928        288.68     0.0724005       1.68925     -0.770307             0        11.407     -0.217899             0       20.4465       1.43578             0       6.51172             0             0      0.191317   2.45376e-15      0.168187        102616        103131        288271   4.49574e-15
    0.0125125       288.877       288.678     0.0714613       2.32471     -0.891313             0       11.3738     -0.233716             0       19.8574       1.38667             0       7.06352             0             0      0.190457   2.45026e-15      0.171926        102609        103131        288366   4.48933e-15
     0.013013       288.826       288.676     0.0705216       2.96083      -1.01244             0       11.3402     -0.249478             0       19.2617       1.33722             0       7.61531             0             0      0.189604   2.44672e-15      0.175633        102602        103130        288460   4.48285e-15
    0.0135135         288.8       288.675     0.0695659       3.62166      -1.13826             0       11.2959     -0.263189             0       18.4225       1.27463             0       8.16695             0             0       0.18903   2.44168e-15      0.178128        102596        103129        288540   4.47362e-15
     0.014014       288.775       288.675     0.0686155       4.27877      -1.26313             0       11.2509     -0.276764             0       17.5759       1.21296             0       8.71703             0             0      0.188467   2.43668e-15       0.18058        102590        103129        288618   4.46446e-15
    0.0145145       288.761       288.675     0.0678514       4.80667      -1.35509             0       11.1851     -0.285602             0       16.4682       1.18323             0       9.21294             0             0      0.188251    2.4331e-15      0.181516        102585        103128        288670    4.4579e-15
     0.015015       288.746       288.675     0.0670956       5.32956      -1.44477             0       11.1186     -0.294304             0       15.3557       1.15409             0       9.70649             0             0      0.188044   2.42958e-15      0.182417        102579        103127        288723   4.45144e-15
    0.0155155       288.728       288.675     0.0666096        5.6905      -1.46111             0       11.0281     -0.298614             0       14.0854       1.14386             0       10.1239             0             0      0.188089   2.42792e-15      0.182221        102574        103127        288813    4.4484e-15
     0.016016       288.709       288.676     0.0661235       6.05304      -1.47598             0       10.9371     -0.302913             0        12.815       1.13204             0       10.5397             0             0      0.188139    2.4263e-15      0.182005        102569        103127        288901   4.44544e-15
    0.0165165       288.687       288.676     0.0656379       6.46365       -1.4466             0       10.8296     -0.306857             0       11.5447       1.07199             0       10.9042             0             0      0.188319   2.42587e-15      0.181222        102564        103126        288962   4.44465e-15
     0.017017       288.664       288.676     0.0651572       6.88183       -1.4177             0       10.7218     -0.310876             0       10.2788       1.00878             0       11.2671             0             0      0.188504   2.42548e-15      0.180417        102559        103126        289022   4.44393e-15
    0.0175175       288.634       288.677     0.0648186       7.51509      -1.40243             0       10.6061     -0.317032             0       9.14182      0.855899             0       11.5858             0             0      0.188829   2.42619e-15      0.179005        102555        103125        289037   4.44524e-15
     0.018018       288.604       288.677      0.064489        8.1536      -1.38755             0       10.4903     -0.323217             0       8.01385      0.700279             0       11.9014             0             0      0.189158   2.42695e-15      0.177572        102550        103125        289051   4.44663e-15
    0.0185185       288.568       288.678     0.0644008       8.93258      -1.38301             0       10.3695      -0.33019             0        7.1276      0.471351             0       12.1346             0             0      0.189618   2.42882e-15      0.175575        102547        103125        288998   4.45006e-15
     0.019019       288.533       288.678     0.0643118       9.71208      -1.37752             0       10.2486     -0.337148             0       6.25457      0.240789             0       12.3633             0             0      0.190079   2.43073e-15       0.17357        102544        103124        288942   4.45355e-15
    0.0195195       288.499       288.679     0.0642003       10.5047      -1.34822             0       10.1258     -0.343688             0       5.71637    -0.0311532             0       12.4796             0             0       0.19058   2.43347e-15      0.171389        102542        103124        288811   4.45858e-15
      0.02002       288.466        288.68     0.0640657       11.2962       -1.3176             0       10.0032     -0.350229             0       5.19308     -0.303855             0       12.5914             0             0       0.19108   2.43622e-15      0.169217        102541        103124        288680    4.4636e-15
    0.0205205       288.441       288.683      0.063379       12.0594      -1.25547             0       9.88385     -0.356779             0       5.02747     -0.594787             0       12.5936             0             0      0.191535   2.43892e-15       0.16724        102541        103124        288533   4.46855e-15
     0.021021       288.416       288.686     0.0626636       12.8209       -1.1929             0       9.76468     -0.363306             0       4.87555     -0.885387             0       12.5912             0             0      0.191984   2.44159e-15      0.165285        102542        103124        288387   4.47344e-15
    0.0215215         288.4       288.689     0.0612955       13.5405       -1.1201             0        9.6498     -0.369296             0       5.03591      -1.16843             0       12.4836             0             0      0.192322   2.44348e-15      0.163819        102544        103124        288243    4.4769e-15
     0.022022       288.384       288.693      0.059914       14.2571      -1.04842             0       9.53496      -0.37518             0       5.20737       -1.4497             0       12.3709             0             0      0.192652   2.44531e-15      0.162381        102546        103125        288097   4.48027e-15
    0.0225225       288.374       288.698     0.0582418       14.9064      -1.00114             0       9.42124     -0.378778             0       5.61994      -1.69254             0       12.1488             0             0      0.192845   2.44598e-15      0.161542        102549        103125        287909   4.48149e-15
     0.023023       288.364       288.702     0.0565792       15.5518     -0.956706             0        9.3075     -0.382228             0       6.04096      -1.93252             0       11.9216             0             0      0.193031   2.44658e-15      0.160736        102553        103125        287718    4.4826e-15
    0.0235235       288.359       288.706     0.0551157       16.1164     -0.971072             0       9.19352     -0.382587             0       6.63733      -2.11318             0       11.5874             0             0      0.193056   2.44578e-15      0.160628        102557        103125        287480   4.48112e-15
     0.024024       288.355       288.711     0.0536787       16.6782     -0.989724             0       9.07965     -0.382803             0       7.23962      -2.29036             0       11.2485             0             0      0.193069   2.44485e-15      0.160568        102562        103126        287241   4.47942e-15
    0.0245245       288.358       288.715     0.0527671       17.1847      -1.09337             0       8.96792     -0.380176             0       7.95946      -2.39848             0       10.8151             0             0       0.19286   2.44158e-15      0.161478        102568        103126        287005   4.47343e-15
     0.025025       288.362       288.719     0.0518678       17.6907       -1.2013             0       8.85655     -0.377413             0       8.68144      -2.50267             0       10.3779             0             0      0.192645   2.43824e-15      0.162415        102574        103127        286765   4.46732e-15
    0.0255255       288.372       288.724     0.0512049       18.1858      -1.39036             0       8.75211     -0.372048             0       9.44411      -2.53226             0       9.86718             0             0      0.192309   2.43369e-15      0.163874        102580        103128        286482   4.45897e-15
     0.026026       288.383       288.729     0.0505258       18.6789      -1.58006             0       8.64828     -0.366547             0       10.2035      -2.55792             0       9.35418             0             0      0.191967   2.42906e-15       0.16536        102586        103128        286198   4.45049e-15
    0.0265265       288.404       288.735     0.0495501       19.1333      -1.78146             0       8.55576      -0.35855             0       10.9023      -2.51192             0       8.79905             0             0      0.191515   2.42315e-15      0.167324        102593        103129        285889   4.43967e-15
     0.027027       288.426       288.741     0.0485447       19.5773      -1.97746             0         8.464     -0.350446             0       11.5932      -2.46266             0       8.24351             0             0      0.191046   2.41696e-15      0.169365        102600        103130        285579   4.42832e-15
    0.0275275        288.47       288.748     0.0470182       19.8386      -2.07888             0       8.38539     -0.340437             0       12.1429      -2.35653             0       7.68072             0             0      0.190271   2.40574e-15      0.172736        102607        103130        285248   4.40776e-15
     0.028028       288.514       288.756     0.0455198       20.0825      -2.17275             0       8.30765     -0.330354             0       12.6818      -2.24849             0       7.11929             0             0      0.189499    2.3944e-15      0.176091        102614        103131        284917   4.38699e-15
    0.0285285       288.563       288.765     0.0444967       20.0333      -2.13906             0        8.2445     -0.319004             0       13.0369      -2.10825             0       6.58084             0             0      0.188795    2.3811e-15      0.179152        102621        103131        284592   4.36263e-15
     0.029029       288.611       288.773     0.0435525       19.9717      -2.10266             0       8.18236      -0.30757             0       13.3793      -1.96794             0       6.04516             0             0      0.188121   2.36797e-15      0.182084        102627        103132        284272   4.33857e-15
    0.0295295       288.641       288.779     0.0438885       19.7091      -2.02202             0       8.13662     -0.294774             0       13.5165       -1.8264             0       5.55452             0             0      0.187925   2.35755e-15      0.182935        102633        103132        284033   4.31948e-15
      0.03003       288.671       288.785     0.0442527       19.4468      -1.94506             0       8.09189     -0.281891             0       13.6411      -1.68612             0       5.06755             0             0      0.187769   2.34679e-15      0.183615        102638        103133        283800   4.29976e-15
    0.0305305       288.697       288.788     0.0450576       19.1879      -1.92563             0       8.06304     -0.267654             0       13.5676      -1.56542             0       4.63815             0             0       0.18823   2.33068e-15       0.18161        102642        103133        283668   4.27024e-15
     0.031031       288.722        288.79     0.0458387       18.9352      -1.91094             0       8.03494     -0.253376             0       13.4844      -1.44604             0       4.21281             0             0      0.188721   2.31382e-15      0.179475        102647        103134        283538   4.23935e-15
    0.0315315       288.751        288.79      0.046258       18.7749      -1.96814             0       8.01825     -0.238477             0       13.2559      -1.34661             0        3.8489             0             0      0.189669   2.28569e-15       0.17535        102650        103134        283447   4.18781e-15
     0.032032       288.779       288.789     0.0466438       18.6131      -2.02356             0       8.00187     -0.223601             0       13.0239      -1.24801             0       3.48897             0             0      0.190596   2.25781e-15       0.17132        102653        103135        283361   4.13673e-15
    0.0325325         288.8       288.786     0.0465405         18.43      -2.05301             0       7.99003     -0.209061             0       12.7407      -1.16158             0       3.18731             0             0      0.191204   2.23374e-15       0.16868        102656        103135        283362   4.09263e-15
     0.033033        288.82       288.783     0.0464079       18.2388      -2.07634             0       7.97815     -0.194602             0       12.4603      -1.07595             0        2.8892             0             0       0.19176   2.21078e-15      0.166259        102658        103135        283369   4.05057e-15
    0.0335335       288.838       288.778     0.0458592       17.9323      -2.01312             0       7.96562     -0.181291             0       12.2208       -1.0015             0       2.64137             0             0      0.191601   2.20355e-15      0.166953        102660        103136        283453   4.03731e-15
     0.034034       288.855       288.774     0.0452748       17.6276      -1.95112             0       7.95295     -0.168081             0       11.9866      -0.92792             0       2.39636             0             0      0.191405    2.1969e-15      0.167806        102662        103136        283539   4.02513e-15
    0.0345345       288.875       288.767     0.0442025       17.3468      -1.90599             0       7.93846     -0.156266             0        11.826     -0.866081             0       2.19007             0             0       0.19071   2.19828e-15      0.170825        102663        103136        283661   4.02766e-15
     0.035035       288.894       288.761     0.0431058       17.0793      -1.86829             0       7.92394     -0.144529             0       11.6686     -0.804677             0       1.98585             0             0      0.190003   2.19978e-15        0.1739        102665        103136        283789   4.03041e-15
    0.0355355       288.908       288.753     0.0416857       16.9904      -1.92916             0       7.90893     -0.133826             0       11.5531     -0.749051             0       1.80918             0             0      0.189125    2.2029e-15      0.177718        102666        103137        283985   4.03613e-15
     0.036036        288.92       288.745     0.0402791       16.9112      -1.99361             0         7.894     -0.123162             0       11.4374     -0.693388             0        1.6341             0             0      0.188272     2.206e-15      0.181425        102666        103137        284182    4.0418e-15
    0.0365365       288.921       288.736      0.039046       16.9586      -2.10424             0       7.87998     -0.112995             0       11.3186     -0.637248             0       1.47965             0             0      0.187751   2.20876e-15       0.18369        102667        103137        284390   4.04686e-15
     0.037037       288.921       288.728     0.0378655       17.0026      -2.21135             0       7.86605     -0.102846             0       11.1978     -0.580916             0        1.3266             0             0       0.18727   2.21149e-15      0.185784        102668        103137        284598   4.05186e-15
    0.0375375       288.909        288.72     0.0373428       17.0046      -2.27453             0       7.85321    -0.0929202             0       11.0524      -0.52219             0       1.19111             0             0      0.187276    2.2138e-15      0.185755        102669        103137        284810    4.0561e-15
     0.038038       288.895       288.712     0.0368722       16.9907      -2.32849             0       7.84041    -0.0830342             0       10.9053     -0.463539             0       1.05705             0             0      0.187308    2.2177e-15      0.185619        102669        103138        285024   4.06323e-15
    0.0385385       288.868       288.706     0.0370358       16.7826      -2.27049             0       7.82821    -0.0736292             0       10.7383     -0.405789             0      0.940546             0             0      0.187633   2.24082e-15      0.184204        102670        103138        285259   4.10561e-15
     0.039039       288.842         288.7     0.0372234       16.5551      -2.20293             0       7.81603    -0.0643092             0       10.5712     -0.348644             0      0.825561             0             0      0.187965   2.26531e-15      0.182761        102670        103138        285495   4.15048e-15
    0.0395395       288.817       288.697     0.0376936       16.0977      -2.02239             0        7.8042    -0.0559948             0        10.404     -0.298635             0       0.72857             0             0       0.18837   2.30593e-15      0.180999        102671        103138        285745   4.22489e-15
      0.04004       288.795       288.693     0.0381703       15.6336      -1.83946             0       7.79244    -0.0478154             0       10.2386     -0.249695             0      0.633096             0             0      0.188775   2.34574e-15       0.17924        102671        103138        285998   4.29783e-15
    0.0405405       288.808        288.69     0.0387212       15.0918      -1.62912             0       7.78148    -0.0411889             0       10.0945     -0.213035             0      0.555072             0             0      0.189169   2.37625e-15      0.177527        102671        103138        286281   4.35373e-15
     0.041041       288.824       288.688     0.0392602        14.565      -1.42728             0       7.77061    -0.0346984             0       9.95267     -0.177377             0      0.478364             0             0      0.189568   2.40475e-15       0.17579        102671        103138        286564   4.40594e-15
    0.0415415       288.873       288.686     0.0396662       14.2055      -1.32057             0       7.76065    -0.0297309             0       9.83723     -0.152939             0      0.416394             0             0       0.19003   2.41068e-15      0.173781        102671        103138        286845   4.41682e-15
     0.042042       288.926       288.684     0.0400452       13.8671      -1.22497             0       7.75059    -0.0248321             0       9.72243     -0.128841             0      0.355405             0             0      0.190522   2.41216e-15      0.171643        102671        103138        287123   4.41952e-15
    0.0425425       289.012       288.683     0.0401297       13.7596      -1.25058             0       7.73954    -0.0206824             0       9.61451     -0.108462             0      0.305096             0             0      0.191336   2.36495e-15      0.168105        102671        103138        287369   4.33302e-15
     0.043043       289.096       288.681     0.0401801         13.65      -1.27426             0       7.72813    -0.0165487             0       9.50497    -0.0879351             0      0.255533             0             0      0.192215   2.31243e-15      0.164281        102671        103138        287616   4.23681e-15
    0.0435435        289.16       288.679     0.0398681        13.518      -1.27736             0        7.7129     -0.012585             0       9.37818    -0.0658479             0        0.2139             0             0      0.193797   2.20355e-15      0.157404        102672        103138        287871   4.03731e-15
     0.044044       289.215       288.678     0.0395336       13.3591      -1.26643             0       7.69706   -0.00869821             0        9.2501    -0.0439549             0      0.173057             0             0      0.195541   2.08642e-15      0.149821        102672        103139        288124   3.82271e-15
    0.0445445       289.174       288.675     0.0389659       12.9202      -1.11008             0       7.67493   -0.00560873             0       9.10862    -0.0240734             0      0.140402             0             0      0.198968   1.88386e-15       0.13492        102672        103139        288356   3.45158e-15
     0.045045       289.124       288.673     0.0384238       12.4622     -0.949078             0       7.65151    -0.0026844             0       8.96473   -0.00484206             0       0.10858             0             0      0.202618   1.66977e-15      0.119054        102672        103139        288583   3.05933e-15
    0.0455455       288.993       288.671     0.0381416       11.8123     -0.741086             0       7.61491   -0.00142987             0       8.79652    0.00781481             0     0.0851959             0             0      0.208509   1.33915e-15     0.0934394        102672        103139        288760   2.45357e-15