# vtk DataFile Version 2.0
sampleSurface
ASCII
DATASET POLYDATA
POINTS 16001 float
0 0 0.0005 0 0.001 0.0005 0.001 0 0.0005 -0.001 0
0.0005 0.001 0.001 0.0005 -0.001 0.001 0.0005 0.002 0 0.0005
0 0.002 0.0005 -0.002 0 0.0005 0.002 0.001 0.0005 0.001
0.002 0.0005 -0.002 0.001 0.0005 -0.001 0.002 0.0005 0.002 0.002
0.0005 -0.002 0.002 0.0005 0.003 0 0.0005 0 0.003 0.0005
-0.003 0 0.0005 0.003 0.001 0.0005 0.001 0.003 0.0005 -0.003
0.001 0.0005 -0.001 0.003 0.0005 0.003 0.002 0.0005 0.002 0.003
0.0005 -0.003 0.002 0.0005 -0.002 0.003 0.0005 0.004 0 0.0005
0 0.004 0.0005 -0.004 0 0.0005 0.004 0.001 0.0005 0.001
0.004 0.0005 -0.004 0.001 0.0005 -0.001 0.004 0.0005 0.003 0.003
0.0005 -0.003 0.003 0.0005 0.004 0.002 0.0005 0.002 0.004 0.0005
-0.004 0.002 0.0005 -0.002 0.004 0.0005 0.004 0.003 0.0005 0.003
0.004 0.0005 -0.004 0.003 0.0005 -0.003 0.004 0.0005 0.005 0
0.0005 0 0.005 0.0005 -0.005 0 0.0005 0.005 0.001 0.0005
0.001 0.005 0.0005 -0.005 0.001 0.0005 -0.001 0.005 0.0005 0.005
0.002 0.0005 0.002 0.005 0.0005 -0.005 0.002 0.0005 -0.002 0.005
0.0005 0.004 0.004 0.0005 -0.004 0.004 0.0005 0.005 0.003 0.0005
0.003 0.005 0.0005 -0.005 0.003 0.0005 -0.003 0.005 0.0005 0.006
0 0.0005 0 0.006 0.0005 -0.006 0 0.0005 0.006 0.001
0.0005 0.001 0.006 0.0005 -0.006 0.001 0.0005 -0.001 0.006 0.0005
0.006 0.002 0.0005 0.002 0.006 0.0005 -0.006 0.002 0.0005 -0.002
0.006 0.0005 0.005 0.004 0.0005 0.004 0.005 0.0005 -0.005 0.004
0.0005 -0.004 0.005 0.0005 0.006 0.003 0.0005 0.003 0.006 0.0005
-0.006 0.003 0.0005 -0.003 0.006 0.0005 0.007 0 0.0005 0
0.007 0.0005 -0.007 0 0.0005 0.007 0.001 0.0005 0.005 0.005
0.0005 0.001 0.007 0.0005 -0.007 0.001 0.0005 -0.005 0.005 0.0005
-0.001 0.007 0.0005 0.006 0.004 0.0005 0.004 0.006 0.0005 -0.006
0.004 0.0005 -0.004 0.006 0.0005 0.007 0.002 0.0005 0.002 0.007
0.0005 -0.007 0.002 0.0005 -0.002 0.007 0.0005 0.007 0.003 0.0005
0.003 0.007 0.0005 -0.007 0.003 0.0005 -0.003 0.007 0.0005 0.006
0.005 0.0005 0.005 0.006 0.0005 -0.006 0.005 0.0005 -0.005 0.006
0.0005 0.008 0 0.0005 0 0.008 0.0005 -0.008 0 0.0005
0.008 0.001 0.0005 0.001 0.008 0.0005 -0.008 0.001 0.0005 -0.001
0.008 0.0005 0.007 0.004 0.0005 0.004 0.007 0.0005 -0.007 0.004
0.0005 -0.004 0.007 0.0005 0.008 0.002 0.0005 0.002 0.008 0.0005
-0.008 0.002 0.0005 -0.002 0.008 0.0005 0.006 0.006 0.0005 -0.006
0.006 0.0005 0.008 0.003 0.0005 0.003 0.008 0.0005 -0.008 0.003
0.0005 -0.003 0.008 0.0005 0.007 0.005 0.0005 0.005 0.007 0.0005
-0.007 0.005 0.0005 -0.005 0.007 0.0005 0.008 0.004 0.0005 0.004
0.008 0.0005 -0.008 0.004 0.0005 -0.004 0.008 0.0005 0.009 0
0.0005 0 0.009 0.0005 -0.009 0 0.0005 0.009 0.001 0.0005
0.001 0.009 0.0005 -0.009 0.001 0.0005 -0.001 0.009 0.0005 0.009
0.002 0.0005 0.002 0.009 0.0005 -0.009 0.002 0.0005 -0.002 0.009
0.0005 0.007 0.006 0.0005 0.006 0.007 0.0005 -0.007 0.006 0.0005
-0.006 0.007 0.0005 0.008 0.005 0.0005 0.005 0.008 0.0005 -0.008
0.005 0.0005 -0.005 0.008 0.0005 0.009 0.003 0.0005 0.003 0.009
0.0005 -0.009 0.003 0.0005 -0.003 0.009 0.0005 0.009 0.004 0.0005
0.004 0.009 0.0005 -0.009 0.004 0.0005 -0.004 0.009 0.0005 0.007
0.007 0.0005 -0.007 0.007 0.0005 0.008 0.006 0.0005 0.006 0.008
0.0005 -0.008 0.006 0.0005 -0.006 0.008 0.0005 0.01 0 0.0005
0 0.01 0.0005 -0.01 0 0.0005 0.01 0.001 0.0005 0.001
0.01 0.0005 -0.01 0.001 0.0005 -0.001 0.01 0.0005 0.01 0.002
0.0005 0.002 0.01 0.0005 -0.01 0.002 0.0005 -0.002 0.01 0.0005
0.009 0.005 0.0005 0.005 0.009 0.0005 -0.009 0.005 0.0005 -0.005
0.009 0.0005 0.01 0.003 0.0005 0.003 0.01 0.0005 -0.01 0.003
0.0005 -0.003 0.01 0.0005 0.008 0.007 0.0005 0.007 0.008 0.0005
-0.008 0.007 0.0005 -0.007 0.008 0.0005 0.01 0.004 0.0005 0.004
0.01 0.0005 -0.01 0.004 0.0005 -0.004 0.01 0.0005 0.009 0.006
0.0005 0.006 0.009 0.0005 -0.009 0.006 0.0005 -0.006 0.009 0.0005
0.011 0 0.0005 0 0.011 0.0005 -0.011 0 0.0005 0.011
0.001 0.0005 0.001 0.011 0.0005 -0.011 0.001 0.0005 -0.001 0.011
0.0005 0.011 0.002 0.0005 0.002 0.011 0.0005 -0.011 0.002 0.0005
-0.002 0.011 0.0005 0.01 0.005 0.0005 0.005 0.01 0.0005 -0.01
0.005 0.0005 -0.005 0.01 0.0005 0.008 0.008 0.0005 -0.008 0.008
0.0005 0.011 0.003 0.0005 0.009 0.007 0.0005 0.007 0.009 0.0005
0.003 0.011 0.0005 -0.011 0.003 0.0005 -0.009 0.007 0.0005 -0.007
0.009 0.0005 -0.003 0.011 0.0005 0.01 0.006 0.0005 0.006 0.01
0.0005 -0.01 0.006 0.0005 -0.006 0.01 0.0005 0.011 0.004 0.0005
0.004 0.011 0.0005 -0.011 0.004 0.0005 -0.004 0.011 0.0005 0.012
0 0.0005 0 0.012 0.0005 -0.012 0 0.0005 0.012 0.001
0.0005 0.009 0.008 0.0005 0.008 0.009 0.0005 0.001 0.012 0.0005
-0.012 0.001 0.0005 -0.009 0.008 0.0005 -0.008 0.009 0.0005 -0.001
0.012 0.0005 0.011 0.005 0.0005 0.005 0.011 0.0005 -0.011 0.005
0.0005 -0.005 0.011 0.0005 0.012 0.002 0.0005 0.002 0.012 0.0005
-0.012 0.002 0.0005 -0.002 0.012 0.0005 0.01 0.007 0.0005 0.007
0.01 0.0005 -0.01 0.007 0.0005 -0.007 0.01 0.0005 0.012 0.003
0.0005 0.003 0.012 0.0005 -0.012 0.003 0.0005 -0.003 0.012 0.0005
0.011 0.006 0.0005 0.006 0.011 0.0005 -0.011 0.006 0.0005 -0.006
0.011 0.0005 0.012 0.004 0.0005 0.004 0.012 0.0005 -0.012 0.004
0.0005 -0.004 0.012 0.0005 0.009 0.009 0.0005 -0.009 0.009 0.0005
0.01 0.008 0.0005 0.008 0.01 0.0005 -0.01 0.008 0.0005 -0.008
0.01 0.0005 0.013 0 0.0005 0 0.013 0.0005 -0.013 0
0.0005 0.012 0.005 0.0005 0.005 0.012 0.0005 -0.012 0.005 0.0005
-0.005 0.012 0.0005 0.013 0.001 0.0005 0.011 0.007 0.0005 0.007
0.011 0.0005 0.001 0.013 0.0005 -0.013 0.001 0.0005 -0.011 0.007
0.0005 -0.007 0.011 0.0005 -0.001 0.013 0.0005 0.013 0.002 0.0005
0.002 0.013 0.0005 -0.013 0.002 0.0005 -0.002 0.013 0.0005 0.013
0.003 0.0005 0.003 0.013 0.0005 -0.013 0.003 0.0005 -0.003 0.013
0.0005 0.012 0.006 0.0005 0.006 0.012 0.0005 -0.012 0.006 0.0005
-0.006 0.012 0.0005 0.01 0.009 0.0005 0.009 0.01 0.0005 -0.01
0.009 0.0005 -0.009 0.01 0.0005 0.013 0.004 0.0005 0.011 0.008
0.0005 0.008 0.011 0.0005 0.004 0.013 0.0005 -0.013 0.004 0.0005
-0.011 0.008 0.0005 -0.008 0.011 0.0005 -0.004 0.013 0.0005 0.012
0.007 0.0005 0.007 0.012 0.0005 -0.012 0.007 0.0005 -0.007 0.012
0.0005 0.013 0.005 0.0005 0.005 0.013 0.0005 -0.013 0.005 0.0005
-0.005 0.013 0.0005 0.014 0 0.0005 0 0.014 0.0005 -0.014
0 0.0005 0.014 0.001 0.0005 0.001 0.014 0.0005 -0.014 0.001
0.0005 -0.001 0.014 0.0005 0.014 0.002 0.0005 0.01 0.01 0.0005
0.002 0.014 0.0005 -0.014 0.002 0.0005 -0.01 0.01 0.0005 -0.002
0.014 0.0005 0.011 0.009 0.0005 0.009 0.011 0.0005 -0.011 0.009
0.0005 -0.009 0.011 0.0005 0.013 0.006 0.0005 0.006 0.013 0.0005
-0.013 0.006 0.0005 -0.006 0.013 0.0005 0.014 0.003 0.0005 0.003
0.014 0.0005 -0.014 0.003 0.0005 -0.003 0.014 0.0005 0.012 0.008
0.0005 0.008 0.012 0.0005 -0.012 0.008 0.0005 -0.008 0.012 0.0005
0.014 0.004 0.0005 0.004 0.014 0.0005 -0.014 0.004 0.0005 -0.004
0.014 0.0005 0.013 0.007 0.0005 0.007 0.013 0.0005 -0.013 0.007
0.0005 -0.007 0.013 0.0005 0.011 0.01 0.0005 0.01 0.011 0.0005
-0.011 0.01 0.0005 -0.01 0.011 0.0005 0.014 0.005 0.0005 0.005
0.014 0.0005 -0.014 0.005 0.0005 -0.005 0.014 0.0005 0.015 0
0.0005 0.012 0.009 0.0005 0.009 0.012 0.0005 0 0.015 0.0005
-0.015 0 0.0005 -0.012 0.009 0.0005 -0.009 0.012 0.0005 0.015
0.001 0.0005 0.001 0.015 0.0005 -0.015 0.001 0.0005 -0.001 0.015
0.0005 0.015 0.002 0.0005 0.002 0.015 0.0005 -0.015 0.002 0.0005
-0.002 0.015 0.0005 0.014 0.006 0.0005 0.006 0.014 0.0005 -0.014
0.006 0.0005 -0.006 0.014 0.0005 0.013 0.008 0.0005 0.008 0.013
0.0005 -0.013 0.008 0.0005 -0.008 0.013 0.0005 0.015 0.003 0.0005
0.003 0.015 0.0005 -0.015 0.003 0.0005 -0.003 0.015 0.0005 0.015
0.004 0.0005 0.004 0.015 0.0005 -0.015 0.004 0.0005 -0.004 0.015
0.0005 0.011 0.011 0.0005 -0.011 0.011 0.0005 0.012 0.01 0.0005
0.01 0.012 0.0005 -0.012 0.01 0.0005 -0.01 0.012 0.0005 0.014
0.007 0.0005 0.007 0.014 0.0005 -0.014 0.007 0.0005 -0.007 0.014
0.0005 0.015 0.005 0.0005 0.013 0.009 0.0005 0.009 0.013 0.0005
0.005 0.015 0.0005 -0.015 0.005 0.0005 -0.013 0.009 0.0005 -0.009
0.013 0.0005 -0.005 0.015 0.0005 0.016 0 0.0005 0 0.016
0.0005 -0.016 0 0.0005 0.016 0.001 0.0005 0.001 0.016 0.0005
-0.016 0.001 0.0005 -0.001 0.016 0.0005 0.016 0.002 0.0005 0.002
0.016 0.0005 -0.016 0.002 0.0005 -0.002 0.016 0.0005 0.014 0.008
0.0005 0.008 0.014 0.0005 -0.014 0.008 0.0005 -0.008 0.014 0.0005
0.015 0.006 0.0005 0.006 0.015 0.0005 -0.015 0.006 0.0005 -0.006
0.015 0.0005 0.016 0.003 0.0005 0.012 0.011 0.0005 0.011 0.012
0.0005 0.003 0.016 0.0005 -0.016 0.003 0.0005 -0.012 0.011 0.0005
-0.011 0.012 0.0005 -0.003 0.016 0.0005 0.013 0.01 0.0005 0.01
0.013 0.0005 -0.013 0.01 0.0005 -0.01 0.013 0.0005 0.016 0.004
0.0005 0.004 0.016 0.0005 -0.016 0.004 0.0005 -0.004 0.016 0.0005
0.015 0.007 0.0005 0.007 0.015 0.0005 -0.015 0.007 0.0005 -0.007
0.015 0.0005 0.014 0.009 0.0005 0.009 0.014 0.0005 -0.014 0.009
0.0005 -0.009 0.014 0.0005 0.016 0.005 0.0005 0.005 0.016 0.0005
-0.016 0.005 0.0005 -0.005 0.016 0.0005 0.012 0.012 0.0005 -0.012
0.012 0.0005 0.015 0.008 0.0005 0.008 0.015 0.0005 -0.015 0.008
0.0005 -0.008 0.015 0.0005 0.017 0 0.0005 0 0.017 0.0005
-0.017 0 0.0005 0.013 0.011 0.0005 0.011 0.013 0.0005 -0.013
0.011 0.0005 -0.011 0.013 0.0005 0.017 0.001 0.0005 0.001 0.017
0.0005 -0.017 0.001 0.0005 -0.001 0.017 0.0005 0.016 0.006 0.0005
0.006 0.016 0.0005 -0.016 0.006 0.0005 -0.006 0.016 0.0005 0.017
0.002 0.0005 0.002 0.017 0.0005 -0.017 0.002 0.0005 -0.002 0.017
0.0005 0.014 0.01 0.0005 0.01 0.014 0.0005 -0.014 0.01 0.0005
-0.01 0.014 0.0005 0.017 0.003 0.0005 0.003 0.017 0.0005 -0.017
0.003 0.0005 -0.003 0.017 0.0005 0.016 0.007 0.0005 0.007 0.016
0.0005 -0.016 0.007 0.0005 -0.007 0.016 0.0005 0.017 0.004 0.0005
0.004 0.017 0.0005 -0.017 0.004 0.0005 -0.004 0.017 0.0005 0.015
0.009 0.0005 0.009 0.015 0.0005 -0.015 0.009 0.0005 -0.009 0.015
0.0005 0.013 0.012 0.0005 0.012 0.013 0.0005 -0.012 0.013 0.0005
-0.013 0.012 0.0005 0.017 0.005 0.0005 0.005 0.017 0.0005 -0.017
0.005 0.0005 -0.005 0.017 0.0005 0.014 0.011 0.0005 0.011 0.014
0.0005 -0.014 0.011 0.0005 -0.011 0.014 0.0005 0.016 0.008 0.0005
0.008 0.016 0.0005 -0.016 0.008 0.0005 -0.008 0.016 0.0005 0.018
[...]
POINT_DATA 16001
FIELD attributes 17
p 1 16001 float
102719 102717 102702 102737 102701 102735 102691 102713 102756 102690 102700
102754 102730 102691 102749 102682 102706 102775 102682 102696 102772
102722 102684 102690 102766 102740 102674 102696 102790 102674 102690
102788 102710 102685 102758 102676 102689 102783 102728 102677 102687
102776 102748 102664 102683 102804 102664 102682 102802 102694 102666
102685 102799 102713 102679 102768 102667 102685 102795 102737 102653
102663 102817 102653 102670 102817 102671 102655 102681 102816 102692
102669 102679 102790 102761 102656 102685 102815 102721 102642 102641
102834 102641 102671 102652 102835 102785 102648 102659 102681 102813
102750 102644 102669 102837 102668 102645 102677 102838 102702 102661
102675 102810 102779 102631 102602 102856 102631 102617 102857 102612
102647 102679 102838 102737 102634 102647 102860 102638 102665 102805
102636 102669 102863 102678 102646 102675 102836 102770 102637 102682
102865 102719 102623 102545 102883 102623 102553 102884 102574 102625
102601 102887 102606 102644 102660 102833 102800 102633 102676 102863
102759 102625 102647 102891 102655 102626 102674 102892 102702 102632
102829 102629 102651 102860 102792 102615 102401 102913 102615 102406
102914 102494 102616 102518 102916 102569 102622 102665 102891 102747
102615 102635 102919 102631 102605 102607 102856 102824 102616 102690
102920 102688 102613 102628 102888 102785 102606 102124 102944 102606
102182 102945 102428 102607 102375 102946 102546 102613 102669 102919
102737 102570 102853 102607 102593 102574 102586 102948 102885 102819
102615 102604 102617 102917 102779 102607 102720 102949 102680 102596
102187 102973 102596 102558 102544 102268 102973 102883 102851 102431
102606 102698 102949 102732 102598 102464 102975 102398 102594 102569
102915 102816 102599 102638 102976 102366 102604 102647 102947 102776
102600 102725 102977 102308 102516 102881 102567 102533 102912 102849
102587 102426 102999 102599 102699 102977 102266 102588 102598 102595
102474 103000 102944 102814 102430 102590 102624 103001 102394 102592
102705 103003 102362 102598 102672 102976 102227 102519 102497 102910
102880 102594 102586 102532 102711 103004 102942 102848 102306 102596
102627 102973 102194 102591 102686 103004 102266 102583 102471 103023
102583 102514 103023 102444 102585 102507 102586 103024 102909 102394
102571 102504 102939 102880 102589 102669 103003 102227 102586 102632
103026 102355 102587 102556 102970 102163 102586 102665 103027 102305
102583 102635 103001 102195 102564 102530 102937 102909 102583 102663
103028 102266 102582 102583 102535 102502 103044 102967 102134 102582
102541 103044 102453 102581 102571 103045 102395 102576 102651 103027
102228 102578 102585 102997 102163 102579 102604 103047 102350 102573
102639 103047 102304 102568 102936 102584 102559 102964 102103 102565
102628 103025 102194 102561 102577 102571 102646 103048 102993 102133
102266 102579 102500 103063 102579 102535 103063 102450 102577 102567
103064 102392 102564 102603 103021 102161 102546 102645 103047 102229
102573 102589 102582 102602 103064 102963 102069 102347 102580 102584
102990 102102 102568 102630 103065 102303 102533 102631 103046 102193
102573 102594 103018 102130 102558 102635 103065 102267 102595 102032
102538 102617 103044 102158 102574 102512 103081 102590 102594 102989
102069 102573 102547 103081 102453 102543 102633 103065 102228 102571
102573 103081 102393 102578 102596 103015 102099 102569 102604 103081
102345 102524 102623 103064 102192 102568 102619 103081 102303 102553
102606 103041 102126 102595 102595 102033 101995 102566 102617 103081
102266 102586 102594 103014 102068 102522 102612 103063 102154 102567
102583 103099 102567 102560 102597 102601 103099 103039 102633 102095
102557 102613 103080 102228 102565 102623 103098 102637 102564 102627
103097 102643 102539 102602 103063 102122 102592 101996 102537 102609
103081 102191 102561 102619 103096 102648 102589 102587 101962 102034
102573 102588 103038 102066 102555 102604 103096 102652 102520 102607
103081 102153 102546 102592 103062 102092 102545 102595 103096 102655
102560 102618 103117 102559 102623 103117 102628 102558 102585 102577
102635 103115 102634 101963 102000 102578 102575 101935 102036 102555
102521 102604 102628 103114 103082 102641 102120 102531 102597 103097
102656 102555 102580 103061 102065 102550 102613 103113 102647 102544
102601 103112 102651 102515 102603 103099 102656 102524 102598 103083
102091 102570 101968 102571 102564 101936 102004 102530 102594 103113
102654 102561 102568 101915 102037 102554 102619 103135 102553 102614
103135 102629 102551 102618 103134 102635 102503 102609 103101 102654
102548 102616 103132 102642 102510 102528 102585 102595 103114 103082
102656 102064 102544 102611 103130 102647 102561 102556 101940 101973
102496 102607 103102 102653 102493 102554 102555 102600 103116 102655
101915 102008 102537 102606 103130 102651 102533 102567 101899 102038
102528 102603 103130 102654 102547 102623 103153 102478 102604 103119
102654 102547 102618 103153 102630 102498 102592 103102 102651 102545
102616 103151 102636 102510 102602 103132 102655 102547 101945 102542
102611 103150 102642 102547 102543 101918 101978 102539 102607 103148
102646 102534 102549 101899 102009 102469 102600 103120 102653 102489
102602 103133 102655 102532 102603 103147 102650 102512 102570 102649
101885 102525 102602 103147 102653 102474 102538 102533 102599 103136
102655 101920 101949 102476 102585 103120 102651 102543 102623 103171
102543 102614 103171 102630 102537 102528 101899 101980 102541 102607
103169 102637 102515 102603 103148 102654 102539 102522 102545 102604
103168 102648 102643 101885 102537 102602 103166 102646 102469 102592
103138 102653 102504 102496 102564 102602 103150 102649 102655 101871
102532 102602 103165 102649 102525 101923 102531 102513 101899 101951
102523 102525 102518 102604 103164 102646 102652 101883 102477 102578
103137 102651 102494 102597 103152 102654 102539 102624 103186 102539
102509 102540 102611 103186 102648 102633 101870 102538 102515 102606
102602 103184 103165 102653 102639 102536 102595 103183 102644 102487
102587 103153 102653 102492 102559 102649 101856 102534 102593 103181
102647 102520 102507 101899 101924 102512 102604 103166 102654 102522
102498 102644 101880 102531 102596 103180 102649 102512 102516 102646
101867 102492 102572 103152 102650 102525 102508 102596 102602 103179
103168 102654 102651 102502 102538 102647 101855 102534 102629 103200
102534 102609 103200 102636 102523 102608 103179 102653 102509 101899
102534 102517 102494 102590 103199 102642 102641 101878 102507 102582
103169 102652 102532 102498 102552 102581 103197 102647 102645 101840
102513 102501 102644 101864 102530 102582 103195 102647 102518 102607
103179 102653 102503 102518 102645 101852 102527 102591 103194 102649
102508 102563 103167 102649 102517 102596 103180 102653 102500 102532
102645 101839 102522 102605 103192 102650 102514 102501 102640 101878
102514 102496 102642 101861 102522 102507 102508 102616 103192 102643
102652 101848 102530 102617 103209 102530 102602 103209 102643 102506
102543 102646 101823 102523 102578 103181 102651 102530 102581 103208
102644 102529 102569 103206 102647 102498 102517 102643 101837 102524
102616 103192 102653 102528 102569 103204 102648 102513 102637 102523
102518 102501 102556 103180 102640 102648 101860 102526 102582 103202
102649 102501 102525 102644 101823 102511 102504 102642 101845 102527
102603 103193 102652 102522 102601 103201 102650 102499 102509 102642
101834 102515 102533 102644 101808 102519 102615 103200 102652 102525
102597 102531 102581 103194 102650 102525 102590 102524 102495 102512
102577 102642 101821 102522 102522 102512 102566 102638 102634 102518
102506 102640 101844 102520 102616 103200 102652 102517 102565 102531
102502 102508 102555 103192 102641 102647 101832 102503 102515 102642
101808 102512 102575 102525 102604 103201 102652 102492 102507 102642
101820 102509 102589 102518 102529 102643 101792 102517 102635 102523
102512 102631 102638 102509 102493 102503 102600 102641 101808 102529
102582 103202 102649 102521 102597 102521 102590 102504 102510 102640
101831 102519 102578 102518 102568 102506 102488 102507 102600 102641
101819 102514 102564 102502 102510 102641 101793 102524 102556 103200
102646 102508 102484 102499 102569 102641 101808 102507 102590 102516
102513 102633 102636 102502 102576 102507 102512 102629 102638 102511
102532 102643 101781 102489 102498 102641 101793 102483 102509 102640
101818 102508 102573 102497 102581 102517 102591 102473 102501 102641
101808 102516 102586 102515 102577 102492 102580 102513 102566 102496
102514 102641 101782 102504 102553 102512 102508 102557 102633 102473
102494 102641 101794 102502 102511 102631 102636 102480 102511 102627
102639 102509 102556 102487 102572 102462 102505 102641 101807 102497
102535 102499 102559 102483 102502 102640 101783 102482 102560 102455
102497 102642 101795 102488 102562 102513 102496 102505 102577 102631
102634 102513 102573 102489 102479 102509 102521 102628 102637 102512
102566 102481 102561 102480 102546 102510 102465 102497 102556 102641
101784 102456 102509 102625 102640 102509 102547 102471 102439 102502
102555 102642 101794 102505 102543 102480 102511 102482 102533 102498
102543 102445 102498 102641 101785 102493 102632 102478 102503 102629
102635 102461 102546 102457 102509 102627 102638 102490 102544 102481
102522 102511 102434 102506 102558 102622 102640 102466 102506 102511
102556 102511 102549 102480 102462 102535 102543 102511 102539 102429
102502 102641 101784 102510 102530 102466 102539 102506 102477 102514
102525 102478 102493 102629 102633 102470 102525 102462 102504 102627
102636 102451 102505 102501 102524 102439 102508 102624 102639 102453
102531 102496 102524 102424 102506 102620 102640 102475 102516 102469
102508 102511 102540 102511 102538 102453 102523 102486 102523 102512
102436 102506 102532 102480 102631 102512 102463 102495 102523 102628
102634 102445 102505 102624 102637 102510 102514 102477 102509 102470
102519 102465 102458 102506 102514 102504 102509 102428 102508 102621
102638 102499 102506 102457 102427 102507 102514 102475 102504 102498
102473 102507 102504 102465 102482 102629 102632 102447 102498 102624
102635 102446 102505 102457 102508 102510 102520 102511 102493 102503
102518 102432 102505 102621 102636 102512 102512 102512 102504 102426
102507 102477 102501 102510 102496 102468 102501 102481 102501 102465
102501 102506 102490 102434 102504 102466 102630 102500 102448 102485
102486 102625 102633 102471 102497 102476 102432 102497 102497 102621
102634 102472 102496 102499 102484 102454 102500 102424 102502 102468
102493 102500 102483 102509 102502 102424 102502 102510 102501 102511
102495 102475 102492 102469 102494 102511 102488 102494 102470 102489
102482 102511 102448 102467 102480 102626 102631 102437 102498 102430
102483 102622 102631 102512 102473 102419 102492 102487 102481 102472
102488 102512 102468 102415 102496 102470 102486 102456 102492 102513
102466 102480 102479 102420 102494 102446 102627 102512 102465 102427
102464 102623 102629 102470 102486 102509 102484 102509 102469 102482
102483 102413 102477 102509 102478 102510 102438 102489 102471 102472
102477 102508 102406 102484 102466 102512 102463 102515 102456 102408
102486 102466 102479 102459 102483 102499 102466 102522 102451 102462
102475 102422 102440 102624 102626 102418 102484 102406 102456 102525
102448 102486 102466 102395 102467 102463 102477 102453 102472 102522
102449 102439 102479 102510 102394 102473 102470 102509 102468 102508
102464 102469 102466 102508 102457 102517 102451 102509 102400 102474
102449 102448 102470 102450 102474 102513 102414 102442 102623 102398
102431 102506 102453 102453 102385 102444 102465 102418 102473 102519
102436 102379 102453 102524 102434 102487 102455 102439 102467 102383
102459 102430 102469 102439 102463 102524 102435 102510 102456 102510
102455 102509 102394 102461 102450 102467 102456 102387 102403 102508
102444 102374 102417 102522 102439 102509 102436 102428 102365 102429
102464 102429 102461 102512 102428 102409 102461 102364 102439 102509
102446 102456 102443 102518 102423 102372 102445 102522 102422 102422
102458 102487 102447 102415 102458 102373 102426 102455 102360 102387
102524 102424 102351 102401 102387 102448 102507 102447 102463 102448
102507 102445 102347 102413 102507 102440 102521 102429 102507 102433
102413 102454 102412 102452 102351 102423 102506 102425 102397 102449
102508 102418 102437 102448 102508 102434 102363 102431 102511 102413
102344 102356 102334 102370 102403 102449 102401 102447 102486 102439
102329 102384 102514 102413 102416 102447 102377 102435 102331 102397
102517 102416 102462 102441 102501 102439 102502 102339 102409 102437
102398 102444 102503 102432 102513 102421 102402 102386 102437 102444
102503 102425 102325 102504 102314 102338 102417 102437 102441 102354
102417 102309 102352 102500 102428 102504 102411 102309 102367 102504
102391 102436 102406 102398 102440 102368 102423 102483 102432 102317
102382 102416 102439 102504 102406 102329 102395 102502 102409 102463
102435 102292 102305 102395 102434 102379 102284 102319 102425 102403
102436 102494 102435 102495 102433 102499 102415 102496 102284 102335
102428 102497 102420 102346 102405 102498 102291 102352 102412 102443
102435 102489 102421 102498 102406 102387 102426 102400 102431 102304
102368 102363 102411 102496 102402 102424 102432 102477 102426 102270
102490 102259 102285 102401 102322 102382 102255 102301 102397 102424
102483 102404 102377 102260 102319 102414 102463 102429 102414 102427
102342 102392 102274 102338 102488 102433 102489 102431 102480 102409
102491 102426 102491 102418 102449 102428 102488 102410 102294 102355
102390 102414 102476 102415 102409 102421 102486 102361 102234 102248
102399 102403 102226 102266 102482 102399 102227 102285 102438 102318
102370 102425 102471 102420 102472 102238 102305 102398 102380 102403
102406 102413 102463 102400 102466 102423 102260 102325 102341 102381
102432 102419 102462 102404 102484 102435 102485 102209 102432 102196
102228 102288 102344 102486 102427 102192 102248 102485 102458 102423
102419 102401 102403 102363 102388 102483 102411 102429 102199 102270
102410 102465 102410 102479 102404 102317 102360 102219 102292 102454
102418 102472 102399 102467 102414 102388 102391 102460 102397 102250
102314 102425 102400 102342 102371 102168 102186 102467 102417 102158
102209 102452 102397 102454 102410 102159 102232 102286 102334 102453
102400 102481 102438 102481 102175 102257 102435 102416 102390 102480
102430 102371 102378 102467 102417 102480 102422 102452 102400 102318
102351 102480 102413 102459 102205 102281 102405 102476 102406 102468
102412 102142 102467 102400 102245 102305 102125 102166 102463 102409
102402 102379 102119 102192 102350 102362 102446 102388 102456 102397
102129 102219 102288 102327 102473 102403 102466 102412 102449 102396
102156 102246 102383 102368 102433 102377 102452 102398 102477 102442
102477 102440 102472 102412 102197 102273 102325 102344 102476 102434
102477 102391 102475 102426 102094 102118 102458 102401 102474 102418
102080 102148 102246 102299 102083 102178 102472 102410 102478 102407
102415 102368 102467 102403 102361 102106 102208 102354 102464 102404
102469 102378 102459 102295 102322 102399 102145 102238 102484 102398
102468 102407 102456 102396 102395 102197 102268 102359 102067 102454
102043 102099 102367 102336 102339 102458 102397 102037 102133 102474
102407 102473 102448 102472 102446 102487 102385 102472 102440 102053
102168 102472 102254 102296 102432 102462 102399 102473 102423 102090
102201 102483 102403 102474 102415 102432 102359 102373 102349 102466
102401 102482 102371 102471 102143 102234 102408 102306 102319 102466
102011 102045 102402 102489 101994 102084 102394 102469 102403 102205
102267 102000 102123 102465 102399 102409 102353 102349 102337 102467
102361 102032 102161 102467 102398 102474 102403 102492 102267 102296
102382 102469 102085 102198 102454 102469 102452 102469 102446 102470
102438 102469 102399 102472 102430 102386 102347 102444 102354 102481
102150 102234 102400 101987 102473 102321 102320 102421 101955 102031
102490 102369 101949 102076 102471 102400 102474 102413 101973 102119
102220 102269 102474 102487 102392 102407 102473 102023 102160 102401
102420 102351 102363 102338 102476 102360 102474 102402 102284 102300
102091 102199 102476 102493 102382 102400 102475 102400 101927 101973
102466 102457 102466 101904 102024 102456 102468 102166 102238 102451
102396 102348 102469 102476 102400 102445 102455 101915 102073 102355
102337 102325 102472 102481 102397 102436 101960 102119 102494 102372
102475 102428 102476 102400 102240 102276 102477 102420 102028 102163
102486 102392 102432 102353 102478 102413 102374 102343 102477 102400
102485 102364 102108 102204 102304 102307 101913 102479 102408 101872
101969 101865 102026 102490 102384 102478 102399 101898 102077 102480
102405 102190 102246 102407 102354 102464 102459 102468 101964 102125
102359 102464 102352 102333 102458 102466 102456 102480 102403 102467
102450 102481 102396 102466 102494 102376 102443 102264 102286 102046
102171 102469 102435 102479 102402 102473 102426 101857 101912 102387
102352 102444 102360 101830 101976 102484 102134 102214 102392 101845
102034 102325 102318 102476 102419 102480 102489 102370 102401 101901
102086 102479 102414 102218 102259 102487 102386 102480 102399 101984
102136 102481 102420 102362 102410 102366 102344 102476 102367 102462
102460 102462 102077 102184 102459 102291 102300 102463 102458 102481
102408 102480 102396 101860 102465 102455 102490 101814 101925 102380
102465 101807 101990 102449 102465 102168 102229 102441 101847 102047
102481 102405 102401 102363 102451 102368 102468 102343 102332 102433
102481 102392 101924 102100 102484 102376 102473 102481 102403 102425
102251 102278 102019 102152 102476 102419 102483 102388 102427 102372
102481 102383 102358 102401 101819 101879 102116 102201 102478 101791
101947 102415 102474 102375 102316 102316 101808 102010 102459 102460
102459 102460 102479 102412 102480 102483 101871 102065 102385 102398
102459 102460 102462 102208 102250 102458 102467 102453 102415 102374
101963 102119 102364 102348 102478 102454 102377 102409 102467 102445
102479 102394 102466 102437 102477 102383 102284 102298 102064 102173
102479 102406 102468 101843 102430 101798 101909 101792 101975 102401
102372 102470 102480 102162 102223 102391 102424 102436 102382 101834
102033 102479 102402 102341 102335 102464 102384 101915 102088 102472
102419 102249 102274 102479 102390 102478 102015 102143 102399 102455
102460 102473 102416 102455 102461 102455 102461 102431 102385 102455
102459 102385 102364 102451 102387 102457 102454 101824 101879 102473
102117 102199 102412 102316 102317 101800 101944 102458 102447 102477
102396 102473 101819 102004 102391 102459 102439 101881 102059 102474
102408 102211 102249 102461 102431 102421 102383 102444 102391 102476
102394 102366 101972 102114 102352 102461 102425 102475 102464 102393
102404 102289 102298 102075 102172 102462 102421 101864 102475 102394
101826 101921 102475 102400 102443 101825 101980 102393 102463 102417
102449 102410 102377 102449 102448 102174 102230 102455 102396 102448
101866 102035 102346 102336 102448 102465 102413 101941 102088 102448
102474 102398 102470 102396 102259 102277 102450 102038 102144 102467
102409 102442 102391 102450 102452 102396 102366 102398 102473 102396
102137 102204 102449 102464 102324 101867 101910 102318 102399 102468
101850 101963 102404 101870 102016 102449 101926 102067 102229 102260
102473 102396 102438 102385 102457 102398 102469 102401 102451 102380
102351 102442 102459 102401 102442 102010 102120 102442 102442 102441
102301 102301 102454 102105 102174 102470 102470 102398 102398 102441
101915 102463 102395 102442 101889 101956 102429 102375 102457 102461