# vtk DataFile Version 2.0
sampleSurface
ASCII
DATASET POLYDATA
POINTS 16001 float
0 0 0.0005 0 0.001 0.0005 0.001 0 0.0005 -0.001 0
0.0005 0.001 0.001 0.0005 -0.001 0.001 0.0005 0.002 0 0.0005
0 0.002 0.0005 -0.002 0 0.0005 0.002 0.001 0.0005 0.001
0.002 0.0005 -0.002 0.001 0.0005 -0.001 0.002 0.0005 0.002 0.002
0.0005 -0.002 0.002 0.0005 0.003 0 0.0005 0 0.003 0.0005
-0.003 0 0.0005 0.003 0.001 0.0005 0.001 0.003 0.0005 -0.003
0.001 0.0005 -0.001 0.003 0.0005 0.003 0.002 0.0005 0.002 0.003
0.0005 -0.003 0.002 0.0005 -0.002 0.003 0.0005 0.004 0 0.0005
0 0.004 0.0005 -0.004 0 0.0005 0.004 0.001 0.0005 0.001
0.004 0.0005 -0.004 0.001 0.0005 -0.001 0.004 0.0005 0.003 0.003
0.0005 -0.003 0.003 0.0005 0.004 0.002 0.0005 0.002 0.004 0.0005
-0.004 0.002 0.0005 -0.002 0.004 0.0005 0.004 0.003 0.0005 0.003
0.004 0.0005 -0.004 0.003 0.0005 -0.003 0.004 0.0005 0.005 0
0.0005 0 0.005 0.0005 -0.005 0 0.0005 0.005 0.001 0.0005
0.001 0.005 0.0005 -0.005 0.001 0.0005 -0.001 0.005 0.0005 0.005
0.002 0.0005 0.002 0.005 0.0005 -0.005 0.002 0.0005 -0.002 0.005
0.0005 0.004 0.004 0.0005 -0.004 0.004 0.0005 0.005 0.003 0.0005
0.003 0.005 0.0005 -0.005 0.003 0.0005 -0.003 0.005 0.0005 0.006
0 0.0005 0 0.006 0.0005 -0.006 0 0.0005 0.006 0.001
0.0005 0.001 0.006 0.0005 -0.006 0.001 0.0005 -0.001 0.006 0.0005
0.006 0.002 0.0005 0.002 0.006 0.0005 -0.006 0.002 0.0005 -0.002
0.006 0.0005 0.005 0.004 0.0005 0.004 0.005 0.0005 -0.005 0.004
0.0005 -0.004 0.005 0.0005 0.006 0.003 0.0005 0.003 0.006 0.0005
-0.006 0.003 0.0005 -0.003 0.006 0.0005 0.007 0 0.0005 0
0.007 0.0005 -0.007 0 0.0005 0.007 0.001 0.0005 0.005 0.005
0.0005 0.001 0.007 0.0005 -0.007 0.001 0.0005 -0.005 0.005 0.0005
-0.001 0.007 0.0005 0.006 0.004 0.0005 0.004 0.006 0.0005 -0.006
0.004 0.0005 -0.004 0.006 0.0005 0.007 0.002 0.0005 0.002 0.007
0.0005 -0.007 0.002 0.0005 -0.002 0.007 0.0005 0.007 0.003 0.0005
0.003 0.007 0.0005 -0.007 0.003 0.0005 -0.003 0.007 0.0005 0.006
0.005 0.0005 0.005 0.006 0.0005 -0.006 0.005 0.0005 -0.005 0.006
0.0005 0.008 0 0.0005 0 0.008 0.0005 -0.008 0 0.0005
0.008 0.001 0.0005 0.001 0.008 0.0005 -0.008 0.001 0.0005 -0.001
0.008 0.0005 0.007 0.004 0.0005 0.004 0.007 0.0005 -0.007 0.004
0.0005 -0.004 0.007 0.0005 0.008 0.002 0.0005 0.002 0.008 0.0005
-0.008 0.002 0.0005 -0.002 0.008 0.0005 0.006 0.006 0.0005 -0.006
0.006 0.0005 0.008 0.003 0.0005 0.003 0.008 0.0005 -0.008 0.003
0.0005 -0.003 0.008 0.0005 0.007 0.005 0.0005 0.005 0.007 0.0005
-0.007 0.005 0.0005 -0.005 0.007 0.0005 0.008 0.004 0.0005 0.004
0.008 0.0005 -0.008 0.004 0.0005 -0.004 0.008 0.0005 0.009 0
0.0005 0 0.009 0.0005 -0.009 0 0.0005 0.009 0.001 0.0005
0.001 0.009 0.0005 -0.009 0.001 0.0005 -0.001 0.009 0.0005 0.009
0.002 0.0005 0.002 0.009 0.0005 -0.009 0.002 0.0005 -0.002 0.009
0.0005 0.007 0.006 0.0005 0.006 0.007 0.0005 -0.007 0.006 0.0005
-0.006 0.007 0.0005 0.008 0.005 0.0005 0.005 0.008 0.0005 -0.008
0.005 0.0005 -0.005 0.008 0.0005 0.009 0.003 0.0005 0.003 0.009
0.0005 -0.009 0.003 0.0005 -0.003 0.009 0.0005 0.009 0.004 0.0005
0.004 0.009 0.0005 -0.009 0.004 0.0005 -0.004 0.009 0.0005 0.007
0.007 0.0005 -0.007 0.007 0.0005 0.008 0.006 0.0005 0.006 0.008
0.0005 -0.008 0.006 0.0005 -0.006 0.008 0.0005 0.01 0 0.0005
0 0.01 0.0005 -0.01 0 0.0005 0.01 0.001 0.0005 0.001
0.01 0.0005 -0.01 0.001 0.0005 -0.001 0.01 0.0005 0.01 0.002
0.0005 0.002 0.01 0.0005 -0.01 0.002 0.0005 -0.002 0.01 0.0005
0.009 0.005 0.0005 0.005 0.009 0.0005 -0.009 0.005 0.0005 -0.005
0.009 0.0005 0.01 0.003 0.0005 0.003 0.01 0.0005 -0.01 0.003
0.0005 -0.003 0.01 0.0005 0.008 0.007 0.0005 0.007 0.008 0.0005
-0.008 0.007 0.0005 -0.007 0.008 0.0005 0.01 0.004 0.0005 0.004
0.01 0.0005 -0.01 0.004 0.0005 -0.004 0.01 0.0005 0.009 0.006
0.0005 0.006 0.009 0.0005 -0.009 0.006 0.0005 -0.006 0.009 0.0005
0.011 0 0.0005 0 0.011 0.0005 -0.011 0 0.0005 0.011
0.001 0.0005 0.001 0.011 0.0005 -0.011 0.001 0.0005 -0.001 0.011
0.0005 0.011 0.002 0.0005 0.002 0.011 0.0005 -0.011 0.002 0.0005
-0.002 0.011 0.0005 0.01 0.005 0.0005 0.005 0.01 0.0005 -0.01
0.005 0.0005 -0.005 0.01 0.0005 0.008 0.008 0.0005 -0.008 0.008
0.0005 0.011 0.003 0.0005 0.009 0.007 0.0005 0.007 0.009 0.0005
0.003 0.011 0.0005 -0.011 0.003 0.0005 -0.009 0.007 0.0005 -0.007
0.009 0.0005 -0.003 0.011 0.0005 0.01 0.006 0.0005 0.006 0.01
0.0005 -0.01 0.006 0.0005 -0.006 0.01 0.0005 0.011 0.004 0.0005
0.004 0.011 0.0005 -0.011 0.004 0.0005 -0.004 0.011 0.0005 0.012
0 0.0005 0 0.012 0.0005 -0.012 0 0.0005 0.012 0.001
0.0005 0.009 0.008 0.0005 0.008 0.009 0.0005 0.001 0.012 0.0005
-0.012 0.001 0.0005 -0.009 0.008 0.0005 -0.008 0.009 0.0005 -0.001
0.012 0.0005 0.011 0.005 0.0005 0.005 0.011 0.0005 -0.011 0.005
0.0005 -0.005 0.011 0.0005 0.012 0.002 0.0005 0.002 0.012 0.0005
-0.012 0.002 0.0005 -0.002 0.012 0.0005 0.01 0.007 0.0005 0.007
0.01 0.0005 -0.01 0.007 0.0005 -0.007 0.01 0.0005 0.012 0.003
0.0005 0.003 0.012 0.0005 -0.012 0.003 0.0005 -0.003 0.012 0.0005
0.011 0.006 0.0005 0.006 0.011 0.0005 -0.011 0.006 0.0005 -0.006
0.011 0.0005 0.012 0.004 0.0005 0.004 0.012 0.0005 -0.012 0.004
0.0005 -0.004 0.012 0.0005 0.009 0.009 0.0005 -0.009 0.009 0.0005
0.01 0.008 0.0005 0.008 0.01 0.0005 -0.01 0.008 0.0005 -0.008
0.01 0.0005 0.013 0 0.0005 0 0.013 0.0005 -0.013 0
0.0005 0.012 0.005 0.0005 0.005 0.012 0.0005 -0.012 0.005 0.0005
-0.005 0.012 0.0005 0.013 0.001 0.0005 0.011 0.007 0.0005 0.007
0.011 0.0005 0.001 0.013 0.0005 -0.013 0.001 0.0005 -0.011 0.007
0.0005 -0.007 0.011 0.0005 -0.001 0.013 0.0005 0.013 0.002 0.0005
0.002 0.013 0.0005 -0.013 0.002 0.0005 -0.002 0.013 0.0005 0.013
0.003 0.0005 0.003 0.013 0.0005 -0.013 0.003 0.0005 -0.003 0.013
0.0005 0.012 0.006 0.0005 0.006 0.012 0.0005 -0.012 0.006 0.0005
-0.006 0.012 0.0005 0.01 0.009 0.0005 0.009 0.01 0.0005 -0.01
0.009 0.0005 -0.009 0.01 0.0005 0.013 0.004 0.0005 0.011 0.008
0.0005 0.008 0.011 0.0005 0.004 0.013 0.0005 -0.013 0.004 0.0005
-0.011 0.008 0.0005 -0.008 0.011 0.0005 -0.004 0.013 0.0005 0.012
0.007 0.0005 0.007 0.012 0.0005 -0.012 0.007 0.0005 -0.007 0.012
0.0005 0.013 0.005 0.0005 0.005 0.013 0.0005 -0.013 0.005 0.0005
-0.005 0.013 0.0005 0.014 0 0.0005 0 0.014 0.0005 -0.014
0 0.0005 0.014 0.001 0.0005 0.001 0.014 0.0005 -0.014 0.001
0.0005 -0.001 0.014 0.0005 0.014 0.002 0.0005 0.01 0.01 0.0005
0.002 0.014 0.0005 -0.014 0.002 0.0005 -0.01 0.01 0.0005 -0.002
0.014 0.0005 0.011 0.009 0.0005 0.009 0.011 0.0005 -0.011 0.009
0.0005 -0.009 0.011 0.0005 0.013 0.006 0.0005 0.006 0.013 0.0005
-0.013 0.006 0.0005 -0.006 0.013 0.0005 0.014 0.003 0.0005 0.003
0.014 0.0005 -0.014 0.003 0.0005 -0.003 0.014 0.0005 0.012 0.008
0.0005 0.008 0.012 0.0005 -0.012 0.008 0.0005 -0.008 0.012 0.0005
0.014 0.004 0.0005 0.004 0.014 0.0005 -0.014 0.004 0.0005 -0.004
0.014 0.0005 0.013 0.007 0.0005 0.007 0.013 0.0005 -0.013 0.007
0.0005 -0.007 0.013 0.0005 0.011 0.01 0.0005 0.01 0.011 0.0005
-0.011 0.01 0.0005 -0.01 0.011 0.0005 0.014 0.005 0.0005 0.005
0.014 0.0005 -0.014 0.005 0.0005 -0.005 0.014 0.0005 0.015 0
0.0005 0.012 0.009 0.0005 0.009 0.012 0.0005 0 0.015 0.0005
-0.015 0 0.0005 -0.012 0.009 0.0005 -0.009 0.012 0.0005 0.015
0.001 0.0005 0.001 0.015 0.0005 -0.015 0.001 0.0005 -0.001 0.015
0.0005 0.015 0.002 0.0005 0.002 0.015 0.0005 -0.015 0.002 0.0005
-0.002 0.015 0.0005 0.014 0.006 0.0005 0.006 0.014 0.0005 -0.014
0.006 0.0005 -0.006 0.014 0.0005 0.013 0.008 0.0005 0.008 0.013
0.0005 -0.013 0.008 0.0005 -0.008 0.013 0.0005 0.015 0.003 0.0005
0.003 0.015 0.0005 -0.015 0.003 0.0005 -0.003 0.015 0.0005 0.015
0.004 0.0005 0.004 0.015 0.0005 -0.015 0.004 0.0005 -0.004 0.015
0.0005 0.011 0.011 0.0005 -0.011 0.011 0.0005 0.012 0.01 0.0005
0.01 0.012 0.0005 -0.012 0.01 0.0005 -0.01 0.012 0.0005 0.014
0.007 0.0005 0.007 0.014 0.0005 -0.014 0.007 0.0005 -0.007 0.014
0.0005 0.015 0.005 0.0005 0.013 0.009 0.0005 0.009 0.013 0.0005
0.005 0.015 0.0005 -0.015 0.005 0.0005 -0.013 0.009 0.0005 -0.009
0.013 0.0005 -0.005 0.015 0.0005 0.016 0 0.0005 0 0.016
0.0005 -0.016 0 0.0005 0.016 0.001 0.0005 0.001 0.016 0.0005
-0.016 0.001 0.0005 -0.001 0.016 0.0005 0.016 0.002 0.0005 0.002
0.016 0.0005 -0.016 0.002 0.0005 -0.002 0.016 0.0005 0.014 0.008
0.0005 0.008 0.014 0.0005 -0.014 0.008 0.0005 -0.008 0.014 0.0005
0.015 0.006 0.0005 0.006 0.015 0.0005 -0.015 0.006 0.0005 -0.006
0.015 0.0005 0.016 0.003 0.0005 0.012 0.011 0.0005 0.011 0.012
0.0005 0.003 0.016 0.0005 -0.016 0.003 0.0005 -0.012 0.011 0.0005
-0.011 0.012 0.0005 -0.003 0.016 0.0005 0.013 0.01 0.0005 0.01
0.013 0.0005 -0.013 0.01 0.0005 -0.01 0.013 0.0005 0.016 0.004
0.0005 0.004 0.016 0.0005 -0.016 0.004 0.0005 -0.004 0.016 0.0005
0.015 0.007 0.0005 0.007 0.015 0.0005 -0.015 0.007 0.0005 -0.007
0.015 0.0005 0.014 0.009 0.0005 0.009 0.014 0.0005 -0.014 0.009
0.0005 -0.009 0.014 0.0005 0.016 0.005 0.0005 0.005 0.016 0.0005
-0.016 0.005 0.0005 -0.005 0.016 0.0005 0.012 0.012 0.0005 -0.012
0.012 0.0005 0.015 0.008 0.0005 0.008 0.015 0.0005 -0.015 0.008
0.0005 -0.008 0.015 0.0005 0.017 0 0.0005 0 0.017 0.0005
-0.017 0 0.0005 0.013 0.011 0.0005 0.011 0.013 0.0005 -0.013
0.011 0.0005 -0.011 0.013 0.0005 0.017 0.001 0.0005 0.001 0.017
0.0005 -0.017 0.001 0.0005 -0.001 0.017 0.0005 0.016 0.006 0.0005
0.006 0.016 0.0005 -0.016 0.006 0.0005 -0.006 0.016 0.0005 0.017
0.002 0.0005 0.002 0.017 0.0005 -0.017 0.002 0.0005 -0.002 0.017
0.0005 0.014 0.01 0.0005 0.01 0.014 0.0005 -0.014 0.01 0.0005
-0.01 0.014 0.0005 0.017 0.003 0.0005 0.003 0.017 0.0005 -0.017
0.003 0.0005 -0.003 0.017 0.0005 0.016 0.007 0.0005 0.007 0.016
0.0005 -0.016 0.007 0.0005 -0.007 0.016 0.0005 0.017 0.004 0.0005
0.004 0.017 0.0005 -0.017 0.004 0.0005 -0.004 0.017 0.0005 0.015
0.009 0.0005 0.009 0.015 0.0005 -0.015 0.009 0.0005 -0.009 0.015
0.0005 0.013 0.012 0.0005 0.012 0.013 0.0005 -0.012 0.013 0.0005
-0.013 0.012 0.0005 0.017 0.005 0.0005 0.005 0.017 0.0005 -0.017
0.005 0.0005 -0.005 0.017 0.0005 0.014 0.011 0.0005 0.011 0.014
0.0005 -0.014 0.011 0.0005 -0.011 0.014 0.0005 0.016 0.008 0.0005
0.008 0.016 0.0005 -0.016 0.008 0.0005 -0.008 0.016 0.0005 0.018
[...]
POINT_DATA 16001
FIELD attributes 17
p 1 16001 float
114927 114922 114898 114969 114891 114966 114869 114911 115033 114861 114877
115032 114960 114846 115031 114834 114897 115126 114826 114858 115127
114952 114810 114823 115130 115029 114793 114883 115239 114786 114839
115241 114945 114784 115133 114769 114799 115247 115028 114740 114756
115253 115136 114752 114866 115363 114745 114814 115366 114936 114727
114769 115373 115024 114707 115259 114695 114721 115381 115136 114711
114843 115486 114703 114785 115489 114922 114683 114739 115496 115015
114656 114668 115389 115260 114649 114691 115506 115129 114668 114798
115603 114658 114608 114730 115606 115392 114893 114604 114634 115515
115255 114634 114687 115613 114994 114595 114638 115623 115114 114547
114564 115521 115389 114617 114727 115712 114605 114661 115714 114844
114546 114590 115633 115243 114574 114631 115721 114960 114489 115522
114530 114582 115730 115089 114483 114520 115642 115381 114479 114547
115742 115225 114553 114613 115810 114539 114532 115812 114780 114504
114530 115818 114915 114414 114423 115648 115519 114418 114481 115754
115368 114456 114500 115828 115061 114409 114462 115840 115205 114332
115652 114352 114351 115765 115513 114476 114412 115893 114463 114353
115895 114664 114429 114438 115901 114861 114358 114377 115854 115354
114387 114448 115911 115026 114272 114238 115775 115653 114350 114390
115924 115186 114306 114232 115869 115506 114392 113955 115956 114382
114003 115958 114585 114360 114241 115965 114834 114316 114268 115940
115340 114184 115782 114330 114240 114115 114323 115976 115883 115651
115007 114287 114119 115957 115499 114311 114269 115990 115179 114308
113757 115998 114304 114170 114087 113975 116001 115895 115787 113963
114298 114144 116007 115335 114296 114127 116008 113871 114245 114013
115975 115648 114286 114168 116019 113784 114294 114018 116026 115496
114286 114131 116034 113679 114098 115905 114198 114000 115991 115788
114227 113951 116022 114290 114058 116052 113548 114228 114272 113930
114028 116024 116046 115647 113888 114237 114078 116031 113820 114248
114063 116042 113759 114300 113963 116072 113411 114143 114033 116005
115910 114266 114244 113926 114050 116056 116065 115789 113664 114291
113893 116093 113283 114281 114013 116074 113545 114146 113814 116033
114151 113866 116034 113798 114170 114084 113935 116040 116013 113757
114203 113978 116081 115912 114293 113940 116093 113413 114195 113948
116049 113718 114276 113898 116113 113165 114223 113952 116061 113643
114305 113888 116113 113287 114151 114038 116091 116016 114243 113931
116075 113542 114067 114245 113949 113754 116034 116130 113052 114074
113800 116035 113726 114097 113851 116039 113698 114254 113894 116092
113423 114281 113894 116132 113167 114131 113874 116045 113674 114161
113886 116053 113620 114106 116095 114193 114006 116141 112940 114287
113870 116109 113300 114193 114258 113935 113882 116064 116149 113052
113541 113984 113670 116026 113992 113712 116027 113655 114015 113778
116029 113643 114248 113882 116125 113177 114162 113868 116075 113438
114049 114146 114069 113823 116033 116145 112828 113634 114243 113978
116159 112939 114070 113843 116037 113599 114175 113862 116086 113320
114204 113912 116138 113055 114109 113845 116043 113539 114104 112722
113954 113878 116096 113192 113896 113577 116006 114196 114033 116163
112828 113905 113667 116007 113642 114038 113850 116048 113450 113929
113753 116009 113635 114147 113936 116146 112937 113964 113798 116011
113623 114079 113865 116054 113338 113975 113815 116014 113594 113851
113903 116105 113061 114146 114052 112723 112622 114016 113821 116017
113540 114081 113974 116149 112826 113900 113883 116058 113206 113800
113583 115972 113809 113943 113910 113710 115973 116110 113653 112936
113962 113844 116019 113456 113836 113786 115975 113658 113869 113813
115979 113715 113789 113898 116061 113068 114078 112623 114065 113875
116020 113346 113878 113812 115983 113826 114070 113980 112532 112724
113916 113929 116111 112825 113886 113820 115987 113955 114033 113896
116020 113213 113776 113897 116062 112937 113841 113853 115989 114075
113701 113659 115922 113710 113721 115924 113622 113746 114025 113997
113789 115929 113635 112533 112627 113987 113927 112456 112725 113783
113886 113902 113832 115937 116019 113704 113071 113864 113889 115990
114153 113747 113904 116062 112824 113804 113842 115945 113818 113792
113863 115953 113950 113767 113909 115989 114175 113759 113893 116018
112938 113975 112535 113988 113937 112455 112631 113774 113891 115960
114069 113952 113893 112398 112727 113605 113615 115863 113616 113680
115866 113593 113662 113773 115875 113610 113687 113916 115988 114136
113701 113841 115888 113686 113736 113781 113886 113908 115966 116016
114148 112824 113736 113887 115903 113803 113959 113922 112452 112538
113737 113903 115986 114053 113636 113948 113892 113903 115969 114169
112395 112634 113717 113919 115920 113937 113973 113859 112360 112727
113739 113933 115935 114056 113513 113600 115802 113648 113887 115972
114130 113527 113679 115807 113563 113792 113882 115985 113949 113587
113773 115819 113581 113716 113922 115950 114133 113919 112448 113631
113852 115838 113659 113930 113874 112385 112539 113678 113909 115861
113779 113948 113845 112355 112635 113661 113869 115973 114048 113594
113886 115962 114152 113610 113941 115888 113915 113855 113833 113851
112340 113644 113945 115915 114033 113610 113899 113863 113843 115971
114115 112374 112444 113662 113843 115972 113946 113422 113559 115752
113442 113646 115757 113523 113949 113826 112342 112540 113513 113757
115772 113542 113597 113916 115941 114109 113573 113850 113794 113849
115797 113778 113625 112335 113605 113916 115828 113748 113640 113811
115977 114036 113481 113701 113792 113863 115963 113850 114129 112332
113519 113944 115865 113886 113824 112364 113902 113811 112325 112443
113462 113859 113776 113935 115903 113738 114005 112323 113664 113780
115977 113940 113562 113808 115981 114095 113327 113517 115713 113352
113700 113738 113609 115719 113779 113485 112330 113432 113427 113893
113729 115737 115940 114082 113507 113505 113830 115767 113591 113568
113759 115992 114022 113686 113736 113850 112333 113530 113901 115805
113717 113830 113760 112311 112360 113436 113831 115973 114104 113837
113765 113728 112307 113484 113924 115850 113856 113715 113713 113741
112322 113585 113720 115995 113934 113411 113512 113767 113905 115897
115999 114076 113976 113680 113687 113783 112333 113241 113456 115699
113274 113560 115706 113438 113394 113855 115943 114056 113749 112306
113365 113809 113720 113700 115726 113734 113474 112294 113502 113710
116016 114011 113454 113589 113678 113810 115759 113852 113562 112340
113731 113702 113731 112313 113504 113882 115802 113691 113427 113790
115984 114083 113696 113657 113747 112333 113499 113895 115852 113832
113516 113663 116020 113932 113446 113726 116017 114062 113588 113636
113792 112343 113498 113861 115905 113954 113723 113663 113742 112289
113733 113663 113736 112306 113468 113694 113641 113800 115958 113736
114037 112333 113157 113368 115704 113197 113495 115711 113420 113511
113619 113858 112353 113434 113669 116038 114006 113293 113651 115732
113465 113398 113773 115766 113553 113615 113608 113758 112349 113420
113733 116003 114069 113466 113848 115810 113682 113595 113741 113424
113664 113592 113616 116043 113741 113934 112302 113490 113854 115862
113823 113501 113578 113803 112358 113684 113614 113737 112333 113402
113673 116040 114054 113485 113808 115917 113945 113615 113585 113744
112357 113399 113564 113867 112373 113438 113737 115971 114029 113079
113423 113368 113620 116064 114004 113126 113490 113228 113516 113548
113609 113771 112368 113368 113525 113501 113714 113739 113731 113620
113560 113737 112332 113389 113666 116019 114064 113461 113784 113342
113577 113562 113570 116070 113739 113938 112364 113377 113515 113816
112378 113503 113791 113345 113609 116057 114051 113505 113520 113753
112381 113488 113746 113296 113518 113875 112398 113421 113728 113482
113480 113718 113729 113411 113341 113472 113674 113783 112389 113293
113564 116081 114004 113001 113428 113056 113468 113517 113524 113730
112366 113168 113551 113368 113635 113356 113430 113498 113600 113740
112391 113452 113696 113258 113462 113826 112403 113253 113525 116087
113940 113447 113319 113437 113711 113761 112403 113298 113541 113379
113403 113716 113716 113400 113679 113406 113472 113709 113715 113195
113483 113878 112411 113175 113405 113792 112414 113363 113476 113721
112395 113232 113501 113312 113617 112916 113356 113252 113416 113740
112415 112982 113385 113103 113453 113288 113544 113350 113530 113139
113430 113829 112416 113169 113477 113397 113348 113594 113705 113136
113361 113766 112427 113322 113407 113709 113698 113297 113451 113710
113698 113593 113626 113231 113485 113169 113403 113713 112418 113102
113452 113526 113617 113060 113370 113795 112427 113168 113447 113058
113337 113740 112438 113170 113573 112819 113292 113343 113302 113705
113690 112896 113321 113038 113240 113407 113415 113714 113678 113011
113369 113175 113513 113097 113434 113208 112984 113319 113435 113768
112440 113135 113395 113719 113683 113121 113501 113133 112956 113329
113458 113707 112442 113137 113552 112971 113365 113023 113430 113115
113572 112914 113288 113739 112450 113277 113697 113183 113343 113717
113673 113095 113422 113108 113369 113726 113660 112918 113558 112959
113419 112698 112965 113328 113231 113731 113672 112897 113318 112775
113246 112882 113289 112984 113030 113416 113519 113050 113351 112858
113277 113703 112454 112948 113425 113004 113474 112824 112896 113390
113494 113173 113280 113722 113690 112960 113427 113101 113321 113737
113658 112853 113283 112815 113541 112983 113318 113740 113647 113011
113441 112776 113558 112864 113275 113739 113667 112897 113440 112843
113355 112563 113201 112630 113214 112959 113435 112859 113545 112743
112839 113264 113253 113209 113728 112974 113118 113269 113314 113754
113684 113047 113290 113757 113648 113007 113388 112845 113435 112917
113516 112901 112801 113321 113450 113052 113464 112902 113276 113748
113641 112990 113526 112951 112830 113256 113488 112806 113417 112815
112848 113474 113562 113144 113200 113773 113733 113092 113255 113781
113679 112788 113297 112913 113479 112443 113201 112498 112880 113568
113215 112968 113270 113766 113643 112607 113254 112834 113313 112869
113263 112807 113484 112920 113383 112790 113385 112906 113555 112862
113489 112841 113452 112820 113282 113140 113790 112766 113105 113192
113510 113808 113736 112926 113534 112782 113025 113257 113477 113792
113676 112813 113512 112796 113550 112798 113357 112929 113282 112895
113523 112891 113567 112348 113249 112875 113290 112392 113262 112493
113297 112781 113524 112778 113448 112656 113345 112896 112843 113524
113564 112795 113099 113132 113398 113833 113802 112827 113335 113058
113211 113822 113736 112742 113447 112978 113285 112895 113549 112766
113520 112687 113490 112937 113323 112788 113538 112797 113417 112795
113522 112860 113537 112892 113341 113085 113850 112861 113540 113054
113161 113849 113804 112774 113493 112289 113316 112329 112762 113544
113325 113022 113261 112439 113348 112576 112834 113390 113378 112809
113529 112862 112982 113341 113541 112747 113406 112765 113433 112956
113368 112756 113539 112801 113463 112844 113526 112740 113460 112757
113532 113045 113111 113867 113854 112907 113392 113029 113243 112823
113485 112804 113507 113025 113331 112774 113514 112737 113530 112839
113498 112846 113433 112258 112998 113400 113387 112304 113389 112427
113393 112758 113487 112562 113398 112829 113495 112715 112966 113406
113403 112739 113525 112809 113486 112768 113053 113414 113871 113031
113198 112796 113469 112716 113051 113336 113478 112916 113428 112761
113432 113051 113403 112804 113454 112753 113434 112766 113503 113018
113434 112860 113453 112706 113469 112804 113461 112254 113433 112303
113428 112435 112980 113425 113412 112710 113395 113056 113144 112563
113395 113075 113309 112786 113443 112688 113385 112810 113101 113414
113481 112719 113465 112719 113389 112937 113438 113108 113431 112747
112678 113372 113395 112716 113408 113047 113435 112756 113427 112755
113450 112702 113333 112861 113449 113148 112676 113357 113123 113295
112751 113421 113145 113405 112990 113416 112273 113459 112659 113271
112320 113448 113165 113442 112444 113419 112744 113378 112560 113390
112799 113437 112694 113357 113135 113415 112662 113371 112935 113429
112692 113372 112637 113233 112716 113299 113030 113407 112691 113386
113207 113290 113176 113427 112733 113351 112848 113410 112681 113210
113212 113447 112711 113391 112644 113215 112991 113395 113202 113425
112703 113359 112647 113132 112298 113477 112335 113100 113371 113463
112779 113352 112434 113430 112707 113287 112663 112899 113394 113222
112533 113395 113317 112619 113236 113445 113369 112625 113089 113016
113377 113250 113510 112693 113186 112656 113358 113277 113432 112663
112827 113338 113352 112701 113228 112946 113362 112670 113088 113155
113376 112620 113075 112668 113328 113054 113333 112657 113266 112645
113012 113303 113467 112752 113245 112868 113285 113555 113339 112633
113094 112319 113514 112337 113501 112663 113178 112396 113335 113511
113467 112469 113424 112958 113349 112543 113222 113375 113381 112615
112980 112656 113082 112579 113344 112801 113252 112665 113117 113088
113335 112890 113323 112595 113304 112591 112980 112640 113005 113395
112605 113276 113604 113246 112970 113308 113337 113552 112710 113156
112605 113169 112844 113255 113449 113278 112617 112953 112588 113017
112886 113328 113125 113319 112325 113585 112326 113573 112621 113094
112347 113536 112392 113477 112588 112941 112440 113405 112976 113305
112757 113189 112623 113033 112612 113062 112472 112859 113294 113399
113285 113329 113283 113587 112511 113251 113257 113479 112566 112878
113294 112955 112619 112997 112546 113142 113380 113173 112797 113236
112658 113127 112563 113106 112607 112975 112979 113269 112862 113306
112561 113007 112581 113072 112317 113695 112310 113154 113680 113203
113246 112873 113294 112310 113632 113227 113470 112340 112586 112976
113550 112706 113181 112813 113260 112391 113442 112577 113148 113403
113071 112588 113060 112424 113327 112860 113277 112972 113308 112569
112993 112457 113223 112594 113058 112749 113239 112498 113148 112885
113239 112612 113153 112816 113284 113084 112953 112591 113047 113087
113118 112527 113117 112563 113047 113150 113355 112858 113271 112544
113132 112296 113825 112292 112968 113298 113806 112653 113212 112293
113742 112763 113259 112581 113039 112316 113634 112564 113117 112816
113252 112376 113494 112552 112863 113273 113157 112411 113353 112569
113040 113031 112421 113243 112883 113196 112975 112906 112566 113159
112695 113256 113033 113023 112752 113263 112575 113197 112445 113192
112939 113189 112816 113229 112557 113082 112571 113126 112471 113203
112835 113207 112707 113246 112600 113240 112494 113254 112272 113956
112278 113932 112568 113085 112887 113175 112743 113214 112297 113854
112545 113140 112317 113726 112953 113025 112508 113285 112347 113567
112940 112843 112842 113155 112862 112909 112364 113418 112560 113058
112634 113250 112371 113321 112706 112810 112980 113211 112526 113261
112544 113202 112392 112763 113178 113299 112850 113041 112547 113078
112540 113183 112414 113341 112652 112855 113097 113202 112930 112557
112952 112971 113218 112714 113138 112440 113398 112869 112796 112547
113103 112241 114073 112258 114045 112530 113119 112294 113959 112829
112820 112303 112804 113109 113822 112460 113404 112304 113660 112853
112852 112544 113050 112305 113518 112578 113198 112669 113136 112482
113335 112519 113166 112310 112864 112947 113439 112729 113094 112334
112945 112906 113440 112536 112917 112924 113057 112503 113216 112826
113075 112893 112793 112357 113490 112598 113131 112678 113059 112519
113176 112899 112833 112384 113528 112520 113112 112521 112756 113040
113099 112215 112885 112857 114169 112234 114139 112272 114052 112259
113917 112410 113495 112252 113763 112615 113063 112526 113158 112529
112851 112954 113059 112930 112251 112681 113033 113633 112925 112874
112504 113156 112921 112871 112436 113389 112245 113568 112924 112812
112782 113016 112271 112529 113084 113576 112463 112911 112879 113253
112536 113109 112623 113009 112490 113188 112294 113615 112701 113025
112881 112866 112490 112517 113162 113158 112322 113624 112912 112897
112189 114246 112196 112929 112836 114216 112207 112818 112913 114130
112549 113072 112169 112350 113562 114001 112482 112937 112838 113200
112625 113012 112171 112509 113142 113859 112935 112816 112496 113241
112176 113742 112379 113444 112728 113021 112166 113681 112912 112885
112517 113214 112483 113189 112198 113681 112560 113050 112411 113325
112471 113280 112855 112856 112641 113047 112879 112223 113701 112911
112851 112929 112804 112510 113322 112447 113272 112938 112822 112252
113689 112767 112925 112490 113185 112163 114312 112453 112933 112822
113302 112147 112565 113064 114280 112110 114194 112284 113620 112058
114070 112475 113310 112074 112486 113368 113937 112670 113051 112888
112892 112084 113828 112318 113520 112087 113766 112879 112834 112499
113178 112445 113319 112906 112804 112495 112809 112874 113400 112929
112779 112582 113100 112131 113753 112355 112456 113318 113442 112934
112816 112155 113753 112712 112949 112497 113455 112399 113436 112910
112833 112186 112445 113327 113732 112509 113167 112432 113312 112131
114368 112088 112847 112902 114335 112611 113092 112001 114248 112220
113673 112436 113479 112836 111967 114120 112477 112877 112785 113407
111979 112909 112767 113988 111992 112756 112897 113887 112924 112768
112258 113604 112453 113313 112418 113377 112036 112529 113171 113829
112465 113451 112916 112824 112446 113293 112073 112299 113569 113810
112652 112989 112875 112849 112100 113797 112477 113271 112415 113414
112348 112465 113255 113592 112837 112788 112798 112911 112129 112881
112744 113768 112417 113290 112558 113138 112907 112746 112091 114405
112031 114375 112160 113716 112390 112464 112911 112774 113171 113601
111915 114286 111925 112698 112928 114152 111955 114017 112422 113400
112889 112839 112487 113211 112201 112400 113366 113665 111962 113918
112428 113432 112013 113869 112436 113247 112596 113030 112833 112864
112245 113646 112032 112792 113854 112844 112745 112881 112718 112435
113304 112058 112450 112744 112923 113044 113834 112397 113387 112897
112744 112294 113654 112516 113166 112407 113257 112893 112790 112082
113796 112643 112959 112446 112798 112340 112857 112854 113621 112041
114419 112111 113742 111978 114389 111869 114300 112404 113370 111907
114165 112456 113220 112389 113073 111969 114027 112803 112748 112148
112788 112879 113698 112554 113064 112851 112712 111969 113926 112384
113483 112423 112878 112708 112726 111994 113882 112885 112753 112189
113685 112692 112931 112007 113870 112417 113320 112385 113000 112416
113172 112485 112871 112808 113166 112025 113847 112238 112397 112703
113682 112598 112991 112824 112868 112042 113806 112761 112422 112764
112814 112711 112287 113649 112393 112854 112689 113127 112068 113749
111966 112437 113216 111920 111841 112741 112888 112380 112616 111886
112872 112707 112519 113080 111941 112101 113708 112872 112768 111941
112338 113578 112407 112362 112644 112942 111965 112847 112826 112138
113705 112406 113171 111974 112377 112462 113139 112623 112378 113423
112783 112874 111987 112385 112560 112772 112719 113020 112227 112181
112821 112678 113715 112853 112675 111999 112864 112713 112693 112895
112394 113043 112424 113104 112386 112846 112230 113711 112021 112493
113094 111898 112369 112268 111876 112855 112784 111831 111866 111900
112605 112960 112051 112813 112838 112285 112387 112429 113644 111899
112728 112399 112948 111925 112781 112678 112447 113063 112084 112368