# PROC_ID PARCEL_ID CellI X Y Z p Ux Uy Uz T C3H8 CO2 H2O N2 O2 largest_pointer wherePositive largest_pointerWP
2.000000e+00 6.800000e+01 2.100000e+01 2.134440e-02 0.000000e+00 5.000000e-04 1.028550e+05 2.361660e+01 3.249760e-01 0.000000e+00 2.882190e+02 1.229670e-06 2.232260e-19 1.218360e-19 7.699990e-01 2.300000e-01 7.000000e+00 0.000000e+00 0.000000e+00
2.000000e+00 6.900000e+01 2.100000e+01 2.136430e-02 8.697850e-04 5.000000e-04 1.028550e+05 2.361660e+01 3.249760e-01 0.000000e+00 2.882190e+02 1.229670e-06 2.232260e-19 1.218360e-19 7.699990e-01 2.300000e-01 7.000000e+00 0.000000e+00 0.000000e+00
2.000000e+00 7.000000e+01 6.100000e+01 2.138750e-02 1.624180e-03 5.000000e-04 1.028530e+05 2.361280e+01 -1.280500e-01 0.000000e+00 2.882180e+02 2.388850e-05 5.158800e-18 2.815650e-18 7.699820e-01 2.299950e-01 8.000000e+00 0.000000e+00 0.000000e+00
2.000000e+00 7.100000e+01 1.010000e+02 2.137000e-02 2.620540e-03 5.000000e-04 1.028470e+05 2.355620e+01 6.607820e-01 0.000000e+00 2.882360e+02 3.929990e-04 1.882200e-16 1.027290e-16 7.696970e-01 2.299100e-01 6.000000e+00 0.000000e+00 0.000000e+00
2.000000e+00 7.200000e+01 1.410000e+02 2.148110e-02 3.432280e-03 5.000000e-04 1.028410e+05 2.364930e+01 3.140690e-01 0.000000e+00 2.884740e+02 1.800090e-03 5.013310e-16 2.736240e-16 7.686140e-01 2.295860e-01 2.000000e+00 0.000000e+00 0.000000e+00
2.000000e+00 7.300000e+01 1.810000e+02 2.145790e-02 4.498720e-03 5.000000e-04 1.028340e+05 2.332810e+01 1.555520e+00 0.000000e+00 2.898770e+02 7.008760e-03 3.018940e-15 1.647730e-15 7.646030e-01 2.283880e-01 8.000000e+00 0.000000e+00 0.000000e+00
2.000000e+00 7.400000e+01 2.210000e+02 2.164240e-02 5.539640e-03 5.000000e-04 1.028270e+05 2.398330e+01 1.385770e+00 0.000000e+00 2.937010e+02 1.760490e-02 9.872940e-15 5.388610e-15 7.564440e-01 2.259510e-01 5.000000e+00 0.000000e+00 0.000000e+00
2.000000e+00 7.500000e+01 2.610000e+02 2.158850e-02 6.847800e-03 5.000000e-04 1.028430e+05 2.290450e+01 2.887950e+00 0.000000e+00 3.016890e+02 4.028720e-02 5.027960e-14 2.744240e-14 7.389790e-01 2.207340e-01 5.000000e+00 0.000000e+00 0.000000e+00
2.000000e+00 7.600000e+01 3.410000e+02 2.137150e-02 8.034620e-03 5.000000e-04 1.028190e+05 2.192380e+01 2.856660e+00 0.000000e+00 3.214620e+02 1.062050e-01 2.592920e-12 1.415210e-12 6.882220e-01 2.055730e-01 5.000000e+00 0.000000e+00 0.000000e+00
2.000000e+00 7.700000e+01 3.810000e+02 2.133730e-02 9.823730e-03 5.000000e-04 1.028190e+05 1.970020e+01 2.423840e+00 0.000000e+00 3.489940e+02 1.436240e-01 1.228160e-11 6.703240e-12 6.594090e-01 1.969660e-01 7.000000e+00 0.000000e+00 0.000000e+00
2.000000e+00 7.800000e+01 4.200000e+02 2.035890e-02 1.088710e-02 5.000000e-04 1.028210e+05 1.640880e+01 3.601300e+00 0.000000e+00 3.649470e+02 1.699280e-01 3.174840e-11 1.732820e-11 6.391560e-01 1.909170e-01 8.000000e+00 0.000000e+00 0.000000e+00
2.000000e+00 7.900000e+01 4.970000e+02 1.717440e-02 1.281420e-02 5.000000e-04 1.027690e+05 1.145950e+01 1.803960e+00 0.000000e+00 4.074880e+02 2.324960e-01 1.033320e-09 5.639800e-10 5.909780e-01 1.765260e-01 7.000000e+00 0.000000e+00 0.000000e+00
2.000000e+00 8.000000e+01 5.360000e+02 1.639650e-02 1.387190e-02 5.000000e-04 1.027740e+05 1.090350e+01 -3.118900e-01 0.000000e+00 4.254050e+02 3.431680e-01 3.092070e-09 1.687640e-09 5.057600e-01 1.510710e-01 5.000000e+00 0.000000e+00 0.000000e+00
2.000000e+00 8.100000e+01 4.560000e+02 1.693730e-02 1.166440e-02 5.000000e-04 1.027610e+05 1.186240e+01 -7.351360e-01 0.000000e+00 3.921330e+02 2.473970e-01 1.049160e-09 5.726290e-10 5.795040e-01 1.730990e-01 8.000000e+00 0.000000e+00 0.000000e+00
2.000000e+00 8.200000e+01 2.273000e+03 -2.399660e-02 1.100000e-02 5.000000e-04 1.040840e+05 2.250620e+01 -1.483150e-01 0.000000e+00 2.886980e+02 2.413810e-28 5.073180e-38 2.768920e-38 7.700000e-01 2.300000e-01 5.000000e+00 0.000000e+00 0.000000e+00
2.000000e+00 8.300000e+01 2.298000e+03 -2.399660e-02 1.800000e-02 5.000000e-04 1.021550e+05 2.303700e+01 1.230150e-01 0.000000e+00 2.877450e+02 2.757740e-29 4.732450e-39 2.582950e-39 7.700000e-01 2.300000e-01 8.000000e+00 0.000000e+00 0.000000e+00
2.000000e+00 8.400000e+01 7.710000e+02 1.144100e-02 1.973870e-02 5.000000e-04 1.026760e+05 2.206710e+01 3.335970e-01 0.000000e+00 2.910030e+02 2.084420e-01 4.078390e-14 2.225970e-14 6.094990e-01 1.820580e-01 9.000000e+00 0.000000e+00 0.000000e+00
2.000000e+00 8.500000e+01 6.970000e+02 1.724160e-02 1.780370e-02 5.000000e-04 1.027530e+05 1.590220e+01 -2.483590e+00 0.000000e+00 3.345340e+02 4.451780e-01 8.849840e-12 4.830210e-12 4.272130e-01 1.276090e-01 8.000000e+00 0.000000e+00 0.000000e+00
2.000000e+00 8.600000e+01 7.400000e+02 2.083630e-02 1.882930e-02 5.000000e-04 1.027500e+05 2.455620e+01 -4.476620e+00 0.000000e+00 2.941980e+02 1.873620e-01 8.544270e-13 4.663430e-13 6.257310e-01 1.869070e-01 5.000000e+00 0.000000e+00 0.000000e+00
2.000000e+00 8.700000e+01 7.410000e+02 2.146540e-02 1.898580e-02 5.000000e-04 1.027330e+05 2.580700e+01 -5.967960e+00 0.000000e+00 2.915960e+02 1.492800e-01 4.990640e-13 2.723870e-13 6.550540e-01 1.956660e-01 5.000000e+00 0.000000e+00 0.000000e+00
2.000000e+00 8.800000e+01 7.810000e+02 2.137990e-02 1.916200e-02 5.000000e-04 1.027380e+05 2.559780e+01 -7.172320e+00 0.000000e+00 2.884830e+02 4.703440e-02 6.967800e-14 3.803000e-14 7.337840e-01 2.191820e-01 5.000000e+00 0.000000e+00 0.000000e+00
2.000000e+00 8.900000e+01 7.810000e+02 2.151550e-02 1.936520e-02 5.000000e-04 1.027380e+05 2.559780e+01 -7.172320e+00 0.000000e+00 2.884830e+02 4.703440e-02 6.967800e-14 3.803000e-14 7.337840e-01 2.191820e-01 5.000000e+00 0.000000e+00 0.000000e+00
2.000000e+00 9.000000e+01 7.810000e+02 2.153610e-02 1.973170e-02 5.000000e-04 1.027380e+05 2.559780e+01 -7.172320e+00 0.000000e+00 2.884830e+02 4.703440e-02 6.967800e-14 3.803000e-14 7.337840e-01 2.191820e-01 5.000000e+00 0.000000e+00 0.000000e+00
2.000000e+00 9.100000e+01 8.210000e+02 2.109380e-02 2.022920e-02 5.000000e-04 1.027390e+05 2.383720e+01 -7.839380e+00 0.000000e+00 2.881280e+02 1.842520e-02 6.980010e-15 3.809660e-15 7.558130e-01 2.257620e-01 5.000000e+00 0.000000e+00 0.000000e+00
2.000000e+00 9.200000e+01 8.200000e+02 2.045890e-02 2.074820e-02 5.000000e-04 1.027540e+05 2.339390e+01 -6.976330e+00 0.000000e+00 2.881590e+02 1.466420e-02 8.831810e-15 4.820370e-15 7.587090e-01 2.266270e-01 9.000000e+00 0.000000e+00 0.000000e+00
2.000000e+00 9.300000e+01 8.590000e+02 1.981060e-02 2.134370e-02 5.000000e-04 1.027540e+05 2.098390e+01 -6.497230e+00 0.000000e+00 2.881570e+02 7.070450e-03 7.544930e-16 4.117990e-16 7.645560e-01 2.283740e-01 6.000000e+00 0.000000e+00 0.000000e+00
2.000000e+00 9.400000e+01 8.980000e+02 1.882040e-02 2.218640e-02 5.000000e-04 1.027690e+05 1.850030e+01 -5.709660e+00 0.000000e+00 2.881820e+02 7.249420e-03 2.730110e-16 1.490080e-16 7.644180e-01 2.283330e-01 5.000000e+00 0.000000e+00 0.000000e+00
2.000000e+00 9.500000e+01 9.360000e+02 1.671590e-02 2.381840e-02 5.000000e-04 1.027580e+05 1.830250e+01 -4.027260e+00 0.000000e+00 2.882650e+02 4.841390e-03 1.780030e-16 9.715360e-17 7.662720e-01 2.288860e-01 6.000000e+00 0.000000e+00 0.000000e+00
2.000000e+00 9.600000e+01 1.011000e+03 1.139470e-02 2.536270e-02 5.000000e-04 1.026700e+05 1.241330e+01 4.277870e+00 0.000000e+00 2.882750e+02 5.184330e-03 1.906460e-16 1.040540e-16 7.660080e-01 2.288080e-01 6.000000e+00 0.000000e+00 0.000000e+00
2.000000e+00 9.700000e+01 2.448000e+03 -2.399660e-02 2.500000e-02 5.000000e-04 1.021600e+05 2.303380e+01 -1.301530e-01 0.000000e+00 2.877480e+02 8.300140e-31 1.476780e-40 8.060180e-41 7.700000e-01 2.300000e-01 9.000000e+00 0.000000e+00 0.000000e+00
2.000000e+00 1.060000e+02 1.500000e+01 1.546960e-02 0.000000e+00 5.000000e-04 1.029110e+05 2.354760e+01 3.109000e-02 0.000000e+00 2.883090e+02 7.103450e-07 2.004780e-19 1.094200e-19 7.699990e-01 2.300000e-01 5.000000e+00 0.000000e+00 0.000000e+00
2.000000e+00 1.070000e+02 1.500000e+01 1.547720e-02 7.104400e-04 5.000000e-04 1.029110e+05 2.354760e+01 3.109000e-02 0.000000e+00 2.883090e+02 7.103450e-07 2.004780e-19 1.094200e-19 7.699990e-01 2.300000e-01 5.000000e+00 0.000000e+00 0.000000e+00
2.000000e+00 1.080000e+02 5.500000e+01 1.548880e-02 1.323560e-03 5.000000e-04 1.029100e+05 2.367720e+01 -7.204280e-01 0.000000e+00 2.883090e+02 2.479370e-05 1.170600e-17 6.389080e-18 7.699810e-01 2.299940e-01 5.000000e+00 0.000000e+00 0.000000e+00
2.000000e+00 1.090000e+02 9.500000e+01 1.549850e-02 2.043000e-03 5.000000e-04 1.029070e+05 2.400740e+01 -7.394870e-01 0.000000e+00 2.883110e+02 3.570860e-04 3.625000e-16 1.978510e-16 7.697250e-01 2.299180e-01 5.000000e+00 0.000000e+00 0.000000e+00
2.000000e+00 1.100000e+02 9.500000e+01 1.552840e-02 2.678880e-03 5.000000e-04 1.029070e+05 2.400740e+01 -7.394870e-01 0.000000e+00 2.883110e+02 3.570860e-04 3.625000e-16 1.978510e-16 7.697250e-01 2.299180e-01 5.000000e+00 0.000000e+00 0.000000e+00
2.000000e+00 1.110000e+02 1.350000e+02 1.553100e-02 3.212310e-03 5.000000e-04 1.029020e+05 2.452470e+01 -1.578530e+00 0.000000e+00 2.883600e+02 4.553530e-03 1.188980e-14 6.489380e-15 7.664940e-01 2.289530e-01 8.000000e+00 0.000000e+00 0.000000e+00
2.000000e+00 1.120000e+02 1.350000e+02 1.552130e-02 3.831310e-03 5.000000e-04 1.029020e+05 2.452470e+01 -1.578530e+00 0.000000e+00 2.883600e+02 4.553530e-03 1.188980e-14 6.489380e-15 7.664940e-01 2.289530e-01 8.000000e+00 0.000000e+00 0.000000e+00
2.000000e+00 1.130000e+02 1.750000e+02 1.545450e-02 4.294510e-03 5.000000e-04 1.028890e+05 2.548600e+01 -1.806210e+00 0.000000e+00 2.890670e+02 3.661840e-02 2.453800e-13 1.339280e-13 7.418040e-01 2.215780e-01 6.000000e+00 0.000000e+00 0.000000e+00
2.000000e+00 1.140000e+02 1.750000e+02 1.506750e-02 4.604510e-03 5.000000e-04 1.028890e+05 2.548600e+01 -1.806210e+00 0.000000e+00 2.890670e+02 3.661840e-02 2.453800e-13 1.339280e-13 7.418040e-01 2.215780e-01 6.000000e+00 0.000000e+00 0.000000e+00
2.000000e+00 1.150000e+02 1.740000e+02 1.427410e-02 4.970850e-03 5.000000e-04 1.029210e+05 2.431880e+01 -3.146180e+00 0.000000e+00 2.895650e+02 4.284880e-02 4.282020e-13 2.337110e-13 7.370060e-01 2.201450e-01 8.000000e+00 0.000000e+00 0.000000e+00
2.000000e+00 1.160000e+02 2.130000e+02 1.316730e-02 5.577710e-03 5.000000e-04 1.029120e+05 2.201790e+01 -6.241170e+00 0.000000e+00 2.996350e+02 1.636430e-01 5.969850e-12 3.258320e-12 6.439950e-01 1.923620e-01 6.000000e+00 0.000000e+00 0.000000e+00
2.000000e+00 1.170000e+02 2.920000e+02 1.238040e-02 7.798680e-03 5.000000e-04 1.028630e+05 2.155560e+01 -7.455880e+00 0.000000e+00 3.644810e+02 2.889710e-01 1.041900e-10 5.686660e-11 5.474930e-01 1.635370e-01 5.000000e+00 0.000000e+00 0.000000e+00
2.000000e+00 1.180000e+02 3.320000e+02 1.276200e-02 8.841120e-03 5.000000e-04 1.028860e+05 2.333400e+01 -6.752460e+00 0.000000e+00 4.116470e+02 3.332850e-01 4.137610e-10 2.258290e-10 5.133710e-01 1.533440e-01 5.000000e+00 0.000000e+00 0.000000e+00
2.000000e+00 1.190000e+02 5.660000e+02 6.311430e-03 1.400400e-02 5.000000e-04 1.028040e+05 9.563910e+00 -1.678280e-01 0.000000e+00 3.686480e+02 6.928930e-01 8.166250e-13 4.457110e-13 2.364720e-01 7.063460e-02 1.100000e+01 0.000000e+00 0.000000e+00
2.000000e+00 1.200000e+02 2.273000e+03 -2.399650e-02 1.100000e-02 5.000000e-04 1.040840e+05 2.250620e+01 -1.483150e-01 0.000000e+00 2.886980e+02 2.413810e-28 5.073180e-38 2.768920e-38 7.700000e-01 2.300000e-01 5.000000e+00 0.000000e+00 0.000000e+00
2.000000e+00 1.210000e+02 2.298000e+03 -2.399660e-02 1.800000e-02 5.000000e-04 1.021550e+05 2.303700e+01 1.230150e-01 0.000000e+00 2.877450e+02 2.757740e-29 4.732450e-39 2.582950e-39 7.700000e-01 2.300000e-01 8.000000e+00 0.000000e+00 0.000000e+00
2.000000e+00 1.220000e+02 6.850000e+02 5.684790e-03 1.796610e-02 5.000000e-04 1.026870e+05 7.222160e+00 -1.611740e+00 0.000000e+00 2.976790e+02 4.869770e-01 6.529870e-16 3.563980e-16 3.950280e-01 1.179950e-01 8.000000e+00 0.000000e+00 0.000000e+00
2.000000e+00 1.230000e+02 7.340000e+02 1.401650e-02 1.880490e-02 5.000000e-04 1.027330e+05 1.898880e+01 -4.887420e+00 0.000000e+00 2.930240e+02 1.646810e-01 6.070620e-13 3.313320e-13 6.431960e-01 1.921230e-01 5.000000e+00 0.000000e+00 0.000000e+00
2.000000e+00 1.240000e+02 7.350000e+02 1.521480e-02 1.866150e-02 5.000000e-04 1.027460e+05 1.979280e+01 -5.128640e+00 0.000000e+00 2.937750e+02 1.546820e-01 6.788160e-13 3.704950e-13 6.508950e-01 1.944230e-01 5.000000e+00 0.000000e+00 0.000000e+00
2.000000e+00 1.250000e+02 7.750000e+02 1.568930e-02 1.917160e-02 5.000000e-04 1.027390e+05 2.112380e+01 -5.127210e+00 0.000000e+00 2.888180e+02 6.162780e-02 4.696170e-14 2.563150e-14 7.225470e-01 2.158260e-01 6.000000e+00 0.000000e+00 0.000000e+00
2.000000e+00 1.260000e+02 7.750000e+02 1.569390e-02 1.990120e-02 5.000000e-04 1.027390e+05 2.112380e+01 -5.127210e+00 0.000000e+00 2.888180e+02 6.162780e-02 4.696170e-14 2.563150e-14 7.225470e-01 2.158260e-01 6.000000e+00 0.000000e+00 0.000000e+00
2.000000e+00 1.270000e+02 8.150000e+02 1.576220e-02 2.057830e-02 5.000000e-04 1.027490e+05 2.094050e+01 -4.254190e+00 0.000000e+00 2.883380e+02 1.902210e-02 3.210230e-15 1.752130e-15 7.553530e-01 2.256250e-01 5.000000e+00 0.000000e+00 0.000000e+00
2.000000e+00 1.280000e+02 8.550000e+02 1.576400e-02 2.121600e-02 5.000000e-04 1.027430e+05 2.089580e+01 -3.672980e+00 0.000000e+00 2.882820e+02 3.496160e-03 1.134160e-16 6.190220e-17 7.673080e-01 2.291960e-01 8.000000e+00 0.000000e+00 0.000000e+00
2.000000e+00 1.290000e+02 8.550000e+02 1.549980e-02 2.187310e-02 5.000000e-04 1.027430e+05 2.089580e+01 -3.672980e+00 0.000000e+00 2.882820e+02 3.496160e-03 1.134160e-16 6.190220e-17 7.673080e-01 2.291960e-01 8.000000e+00 0.000000e+00 0.000000e+00
2.000000e+00 1.300000e+02 8.950000e+02 1.520370e-02 2.262580e-02 5.000000e-04 1.027600e+05 1.921430e+01 -3.253520e+00 0.000000e+00 2.882860e+02 1.373730e-03 4.043010e-17 2.206660e-17 7.689420e-01 2.296840e-01 6.000000e+00 0.000000e+00 0.000000e+00
2.000000e+00 1.310000e+02 9.350000e+02 1.501660e-02 2.347350e-02 5.000000e-04 1.027560e+05 1.903780e+01 -2.750560e+00 0.000000e+00 2.883020e+02 2.555610e-03 9.194790e-17 5.018480e-17 7.680320e-01 2.294120e-01 6.000000e+00 0.000000e+00 0.000000e+00
2.000000e+00 1.320000e+02 9.740000e+02 1.461770e-02 2.429290e-02 5.000000e-04 1.027700e+05 1.797040e+01 -1.578570e+00 0.000000e+00 2.883340e+02 5.427340e-03 1.971600e-16 1.076090e-16 7.658210e-01 2.287520e-01 6.000000e+00 0.000000e+00 0.000000e+00
2.000000e+00 1.330000e+02 1.013000e+03 1.309440e-02 2.526230e-02 5.000000e-04 1.027560e+05 1.035020e+01 3.463040e+00 0.000000e+00 2.882080e+02 9.624400e-03 3.635700e-16 1.984350e-16 7.625890e-01 2.277860e-01 9.000000e+00 0.000000e+00 0.000000e+00
2.000000e+00 1.340000e+02 9.660000e+02 6.777400e-03 2.448870e-02 5.000000e-04 1.025320e+05 2.277740e+01 2.665260e+00 0.000000e+00 2.881540e+02 5.613530e-03 1.951770e-16 1.065270e-16 7.656780e-01 2.287090e-01 6.000000e+00 0.000000e+00 0.000000e+00
2.000000e+00 1.350000e+02 2.448000e+03 -2.399660e-02 2.500000e-02 5.000000e-04 1.021600e+05 2.303380e+01 -1.301530e-01 0.000000e+00 2.877480e+02 8.300140e-31 1.476780e-40 8.060180e-41 7.700000e-01 2.300000e-01 9.000000e+00 0.000000e+00 0.000000e+00
2.000000e+00 1.440000e+02 9.000000e+00 9.238500e-03 0.000000e+00 5.000000e-04 1.030380e+05 2.114010e+01 9.571060e-02 0.000000e+00 2.883740e+02 4.910420e-09 3.052350e-21 1.665960e-21 7.700000e-01 2.300000e-01 6.000000e+00 0.000000e+00 0.000000e+00
2.000000e+00 1.450000e+02 9.000000e+00 9.245290e-03 7.836020e-04 5.000000e-04 1.030380e+05 2.114010e+01 9.571060e-02 0.000000e+00 2.883740e+02 4.910420e-09 3.052350e-21 1.665960e-21 7.700000e-01 2.300000e-01 6.000000e+00 0.000000e+00 0.000000e+00
2.000000e+00 1.460000e+02 4.900000e+01 9.245840e-03 1.546450e-03 5.000000e-04 1.030350e+05 2.115140e+01 -5.797900e-01 0.000000e+00 2.883740e+02 2.573260e-07 2.088480e-20 1.139890e-20 7.700000e-01 2.300000e-01 6.000000e+00 0.000000e+00 0.000000e+00
2.000000e+00 1.470000e+02 8.900000e+01 9.199060e-03 2.365360e-03 5.000000e-04 1.030330e+05 2.093800e+01 -2.419470e-01 0.000000e+00 2.883730e+02 8.335860e-06 1.968420e-19 1.074360e-19 7.699940e-01 2.299980e-01 6.000000e+00 0.000000e+00 0.000000e+00
2.000000e+00 1.480000e+02 1.290000e+02 9.244890e-03 3.147520e-03 5.000000e-04 1.030200e+05 2.102400e+01 -8.515320e-01 0.000000e+00 2.883720e+02 1.018960e-04 2.168050e-18 1.183310e-18 7.699220e-01 2.299770e-01 6.000000e+00 0.000000e+00 0.000000e+00
2.000000e+00 1.490000e+02 1.690000e+02 9.168860e-03 4.002010e-03 5.000000e-04 1.030120e+05 2.049170e+01 4.621620e-02 0.000000e+00 2.883910e+02 9.540850e-04 2.487340e-17 1.357580e-17 7.692650e-01 2.297810e-01 5.000000e+00 0.000000e+00 0.000000e+00
2.000000e+00 1.500000e+02 1.690000e+02 9.201770e-03 4.864460e-03 5.000000e-04 1.030120e+05 2.049170e+01 4.621620e-02 0.000000e+00 2.883910e+02 9.540850e-04 2.487340e-17 1.357580e-17 7.692650e-01 2.297810e-01 5.000000e+00 0.000000e+00 0.000000e+00
2.000000e+00 1.510000e+02 2.090000e+02 9.207430e-03 5.808280e-03 5.000000e-04 1.029920e+05 2.107590e+01 -4.626930e-01 0.000000e+00 2.885910e+02 5.225270e-03 2.804100e-16 1.530470e-16 7.659770e-01 2.287980e-01 8.000000e+00 0.000000e+00 0.000000e+00
2.000000e+00 1.520000e+02 2.490000e+02 9.145520e-03 6.808050e-03 5.000000e-04 1.029800e+05 1.926310e+01 1.791200e+00 0.000000e+00 2.900900e+02 2.244020e-02 3.320900e-15 1.812530e-15 7.527210e-01 2.248390e-01 6.000000e+00 0.000000e+00 0.000000e+00
2.000000e+00 1.530000e+02 3.290000e+02 9.443500e-03 8.026230e-03 5.000000e-04 1.029100e+05 1.967170e+01 4.317060e+00 0.000000e+00 3.072700e+02 6.962840e-02 6.494190e-13 3.544500e-13 7.163860e-01 2.139850e-01 2.000000e+00 0.000000e+00 0.000000e+00
2.000000e+00 1.540000e+02 3.680000e+02 8.872400e-03 9.062580e-03 5.000000e-04 1.028920e+05 1.494880e+01 4.203840e+00 0.000000e+00 3.957500e+02 6.860680e-02 5.770040e-12 3.149270e-12 7.171730e-01 2.142200e-01 5.000000e+00 0.000000e+00 0.000000e+00
2.000000e+00 1.550000e+02 4.490000e+02 9.360590e-03 1.109070e-02 5.000000e-04 1.028480e+05 1.875880e+01 3.300420e+00 0.000000e+00 4.305910e+02 1.391200e-01 9.782590e-11 5.339300e-11 6.628780e-01 1.980020e-01 1.100000e+01 0.000000e+00 0.000000e+00
2.000000e+00 1.560000e+02 4.880000e+02 8.766690e-03 1.283470e-02 5.000000e-04 1.028400e+05 1.449580e+01 5.278410e+00 0.000000e+00 4.225860e+02 1.870330e-01 5.646890e-11 3.082050e-11 6.259850e-01 1.869820e-01 8.000000e+00 0.000000e+00 0.000000e+00
2.000000e+00 1.570000e+02 4.870000e+02 7.025840e-03 1.266730e-02 5.000000e-04 1.028430e+05 1.221730e+01 5.628990e+00 0.000000e+00 4.121330e+02 1.638370e-01 2.430780e-11 1.326710e-11 6.438450e-01 1.923170e-01 6.000000e+00 0.000000e+00 0.000000e+00
2.000000e+00 1.580000e+02 2.273000e+03 -2.399660e-02 1.100000e-02 5.000000e-04 1.040840e+05 2.250620e+01 -1.483150e-01 0.000000e+00 2.886980e+02 2.413810e-28 5.073180e-38 2.768920e-38 7.700000e-01 2.300000e-01 5.000000e+00 0.000000e+00 0.000000e+00
2.000000e+00 1.590000e+02 2.298000e+03 -2.399660e-02 1.800000e-02 5.000000e-04 1.021550e+05 2.303700e+01 1.230150e-01 0.000000e+00 2.877450e+02 2.757740e-29 4.732450e-39 2.582950e-39 7.700000e-01 2.300000e-01 8.000000e+00 0.000000e+00 0.000000e+00
2.000000e+00 1.600000e+02 7.210000e+02 1.949310e-03 1.864910e-02 5.000000e-04 1.025670e+05 2.125350e+01 9.757100e-02 0.000000e+00 2.881960e+02 9.276460e-02 2.026720e-17 1.106180e-17 6.985710e-01 2.086640e-01 6.000000e+00 0.000000e+00 0.000000e+00
2.000000e+00 1.610000e+02 7.670000e+02 7.939730e-03 1.931480e-02 5.000000e-04 1.026840e+05 2.246600e+01 3.376190e+00 0.000000e+00 2.894180e+02 1.066380e-01 4.025930e-16 2.197340e-16 6.878890e-01 2.054730e-01 5.000000e+00 0.000000e+00 0.000000e+00
2.000000e+00 1.620000e+02 8.090000e+02 9.342090e-03 2.028080e-02 5.000000e-04 1.026840e+05 2.476090e+01 2.886690e+00 0.000000e+00 2.887980e+02 7.000920e-02 2.122550e-15 1.158480e-15 7.160930e-01 2.138980e-01 5.000000e+00 0.000000e+00 0.000000e+00
2.000000e+00 1.630000e+02 8.090000e+02 9.889260e-03 2.069700e-02 5.000000e-04 1.026840e+05 2.476090e+01 2.886690e+00 0.000000e+00 2.887980e+02 7.000920e-02 2.122550e-15 1.158480e-15 7.160930e-01 2.138980e-01 5.000000e+00 0.000000e+00 0.000000e+00
2.000000e+00 1.640000e+02 8.500000e+02 1.009850e-02 2.110370e-02 5.000000e-04 1.026710e+05 2.482450e+01 2.113970e+00 0.000000e+00 2.882970e+02 1.788390e-02 1.877310e-16 1.024630e-16 7.562290e-01 2.258870e-01 5.000000e+00 0.000000e+00 0.000000e+00
2.000000e+00 1.650000e+02 8.500000e+02 1.031670e-02 2.161890e-02 5.000000e-04 1.026710e+05 2.482450e+01 2.113970e+00 0.000000e+00 2.882970e+02 1.788390e-02 1.877310e-16 1.024630e-16 7.562290e-01 2.258870e-01 5.000000e+00 0.000000e+00 0.000000e+00
2.000000e+00 1.660000e+02 8.900000e+02 1.045550e-02 2.208250e-02 5.000000e-04 1.026690e+05 2.475610e+01 2.450150e+00 0.000000e+00 2.882490e+02 4.336550e-03 3.241810e-17 1.769370e-17 7.666610e-01 2.290030e-01 6.000000e+00 0.000000e+00 0.000000e+00
2.000000e+00 1.670000e+02 8.900000e+02 1.046750e-02 2.250780e-02 5.000000e-04 1.026690e+05 2.475610e+01 2.450150e+00 0.000000e+00 2.882490e+02 4.336550e-03 3.241810e-17 1.769370e-17 7.666610e-01 2.290030e-01 6.000000e+00 0.000000e+00 0.000000e+00
2.000000e+00 1.680000e+02 8.900000e+02 1.039260e-02 2.292580e-02 5.000000e-04 1.026690e+05 2.475610e+01 2.450150e+00 0.000000e+00 2.882490e+02 4.336550e-03 3.241810e-17 1.769370e-17 7.666610e-01 2.290030e-01 6.000000e+00 0.000000e+00 0.000000e+00
2.000000e+00 1.690000e+02 9.300000e+02 1.033630e-02 2.338250e-02 5.000000e-04 1.026500e+05 2.368340e+01 3.330610e+00 0.000000e+00 2.882600e+02 2.270370e-03 5.333730e-17 2.911130e-17 7.682520e-01 2.294780e-01 6.000000e+00 0.000000e+00 0.000000e+00
2.000000e+00 1.700000e+02 9.290000e+02 9.990580e-03 2.381500e-02 5.000000e-04 1.026190e+05 2.441820e+01 3.436360e+00 0.000000e+00 2.882260e+02 2.177960e-03 5.582780e-17 3.047060e-17 7.683230e-01 2.294990e-01 1.000000e+01 0.000000e+00 0.000000e+00
2.000000e+00 1.710000e+02 9.680000e+02 8.875760e-03 2.415080e-02 5.000000e-04 1.025750e+05 2.281640e+01 3.883970e+00 0.000000e+00 2.881900e+02 4.711360e-03 1.609760e-16 8.786010e-17 7.663720e-01 2.289160e-01 7.000000e+00 0.000000e+00 0.000000e+00
2.000000e+00 1.720000e+02 9.610000e+02 1.820680e-03 2.426500e-02 5.000000e-04 1.025240e+05 2.085160e+01 -1.106830e+00 0.000000e+00 2.881360e+02 3.308670e-03 1.135100e-16 6.195320e-17 7.674520e-01 2.292390e-01 8.000000e+00 0.000000e+00 0.000000e+00
2.000000e+00 1.730000e+02 2.448000e+03 -2.399660e-02 2.500000e-02 5.000000e-04 1.021600e+05 2.303380e+01 -1.301530e-01 0.000000e+00 2.877480e+02 8.300140e-31 1.476780e-40 8.060180e-41 7.700000e-01 2.300000e-01 9.000000e+00 0.000000e+00 0.000000e+00
2.000000e+00 1.820000e+02 3.000000e+00 3.568650e-03 0.000000e+00 5.000000e-04 1.032590e+05 2.009610e+01 -1.257410e-01 0.000000e+00 2.884410e+02 4.085380e-12 4.004520e-23 2.185650e-23 7.700000e-01 2.300000e-01 6.000000e+00 0.000000e+00 0.000000e+00
2.000000e+00 1.830000e+02 3.000000e+00 3.577950e-03 7.529410e-04 5.000000e-04 1.032590e+05 2.009610e+01 -1.257410e-01 0.000000e+00 2.884410e+02 4.085380e-12 4.004520e-23 2.185650e-23 7.700000e-01 2.300000e-01 6.000000e+00 0.000000e+00 0.000000e+00
2.000000e+00 1.840000e+02 4.300000e+01 3.589910e-03 1.524760e-03 5.000000e-04 1.032520e+05 2.013090e+01 -6.242280e-01 0.000000e+00 2.884380e+02 3.523630e-10 4.395290e-22 2.398930e-22 7.700000e-01 2.300000e-01 8.000000e+00 0.000000e+00 0.000000e+00
2.000000e+00 1.850000e+02 8.300000e+01 3.592120e-03 2.262500e-03 5.000000e-04 1.032420e+05 2.016140e+01 -9.201560e-01 0.000000e+00 2.884340e+02 1.614880e-08 3.441580e-21 1.878400e-21 7.700000e-01 2.300000e-01 6.000000e+00 0.000000e+00 0.000000e+00
2.000000e+00 1.860000e+02 1.230000e+02 3.624520e-03 3.028380e-03 5.000000e-04 1.032320e+05 2.025870e+01 -1.490810e+00 0.000000e+00 2.884270e+02 6.376540e-07 2.300540e-20 1.255630e-20 7.700000e-01 2.300000e-01 5.000000e+00 0.000000e+00 0.000000e+00
2.000000e+00 1.870000e+02 1.230000e+02 3.646490e-03 3.765010e-03 5.000000e-04 1.032320e+05 2.025870e+01 -1.490810e+00 0.000000e+00 2.884270e+02 6.376540e-07 2.300540e-20 1.255630e-20 7.700000e-01 2.300000e-01 5.000000e+00 0.000000e+00 0.000000e+00
2.000000e+00 1.880000e+02 1.630000e+02 3.674970e-03 4.479010e-03 5.000000e-04 1.032240e+05 2.044890e+01 -2.055610e+00 0.000000e+00 2.884230e+02 2.153650e-05 1.400320e-19 7.642900e-20 7.699830e-01 2.299950e-01 5.000000e+00 0.000000e+00 0.000000e+00
2.000000e+00 1.890000e+02 2.030000e+02 3.742840e-03 5.207270e-03 5.000000e-04 1.032210e+05 2.065280e+01 -2.990010e+00 0.000000e+00 2.884150e+02 5.652840e-04 8.751050e-19 4.776290e-19 7.695650e-01 2.298700e-01 6.000000e+00 0.000000e+00 0.000000e+00
2.000000e+00 1.900000e+02 2.030000e+02 3.780160e-03 5.866560e-03 5.000000e-04 1.032210e+05 2.065280e+01 -2.990010e+00 0.000000e+00 2.884150e+02 5.652840e-04 8.751050e-19 4.776290e-19 7.695650e-01 2.298700e-01 6.000000e+00 0.000000e+00 0.000000e+00
2.000000e+00 1.910000e+02 2.430000e+02 3.870340e-03 6.517800e-03 5.000000e-04 1.032090e+05 2.144730e+01 -4.442910e+00 0.000000e+00 2.884230e+02 9.440670e-03 4.991110e-18 2.724130e-18 7.627310e-01 2.278290e-01 6.000000e+00 0.000000e+00 0.000000e+00
2.000000e+00 1.920000e+02 2.830000e+02 3.950340e-03 7.083850e-03 5.000000e-04 1.031940e+05 2.142490e+01 -6.910360e+00 0.000000e+00 2.885540e+02 8.073390e-02 2.166150e-17 1.182280e-17 7.078350e-01 2.114310e-01 5.000000e+00 0.000000e+00 0.000000e+00
2.000000e+00 1.930000e+02 2.830000e+02 3.874090e-03 7.541010e-03 5.000000e-04 1.031940e+05 2.142490e+01 -6.910360e+00 0.000000e+00 2.885540e+02 8.073390e-02 2.166150e-17 1.182280e-17 7.078350e-01 2.114310e-01 5.000000e+00 0.000000e+00 0.000000e+00
2.000000e+00 1.940000e+02 2.830000e+02 3.348680e-03 7.907210e-03 5.000000e-04 1.031940e+05 2.142490e+01 -6.910360e+00 0.000000e+00 2.885540e+02 8.073390e-02 2.166150e-17 1.182280e-17 7.078350e-01 2.114310e-01 5.000000e+00 0.000000e+00 0.000000e+00
2.000000e+00 1.950000e+02 3.600000e+02 8.781530e-04 9.868690e-03 5.000000e-04 1.030990e+05 1.665490e+01 2.335140e+00 0.000000e+00 2.883840e+02 3.617620e-02 1.178360e-17 6.431450e-18 7.421440e-01 2.216790e-01 6.000000e+00 0.000000e+00 0.000000e+00
2.000000e+00 1.960000e+02 2.273000e+03 -2.399660e-02 1.100000e-02 5.000000e-04 1.040840e+05 2.250620e+01 -1.483150e-01 0.000000e+00 2.886980e+02 2.413810e-28 5.073180e-38 2.768920e-38 7.700000e-01 2.300000e-01 5.000000e+00 0.000000e+00 0.000000e+00
2.000000e+00 1.970000e+02 2.298000e+03 -2.399660e-02 1.800000e-02 5.000000e-04 1.021550e+05 2.303700e+01 1.230150e-01 0.000000e+00 2.877450e+02 2.757740e-29 4.732450e-39 2.582950e-39 7.700000e-01 2.300000e-01 8.000000e+00 0.000000e+00 0.000000e+00
2.000000e+00 1.980000e+02 2.277000e+03 -2.791970e-03 1.862470e-02 5.000000e-04 1.024570e+05 2.151030e+01 3.595450e-01 0.000000e+00 2.880690e+02 1.392780e-05 1.168500e-19 6.377640e-20 7.699890e-01 2.299970e-01 8.000000e+00 0.000000e+00 0.000000e+00
2.000000e+00 1.990000e+02 7.630000e+02 3.377830e-03 1.901590e-02 5.000000e-04 1.025820e+05 2.625710e+01 -1.145980e+00 0.000000e+00 2.881390e+02 1.099840e-02 8.145010e-18 4.445510e-18 7.615310e-01 2.274700e-01 5.000000e+00 0.000000e+00 0.000000e+00
2.000000e+00 2.000000e+02 7.640000e+02 4.190290e-03 1.940960e-02 5.000000e-04 1.026000e+05 2.585600e+01 -1.222530e+00 0.000000e+00 2.881460e+02 1.336870e-02 1.044120e-17 5.698760e-18 7.597060e-01 2.269250e-01 5.000000e+00 0.000000e+00 0.000000e+00
2.000000e+00 2.010000e+02 7.640000e+02 4.362820e-03 1.991760e-02 5.000000e-04 1.026000e+05 2.585600e+01 -1.222530e+00 0.000000e+00 2.881460e+02 1.336870e-02 1.044120e-17 5.698760e-18 7.597060e-01 2.269250e-01 5.000000e+00 0.000000e+00 0.000000e+00
2.000000e+00 2.020000e+02 8.040000e+02 4.336940e-03 2.043950e-02 5.000000e-04 1.026150e+05 2.469950e+01 -4.230470e-01 0.000000e+00 2.881360e+02 1.180170e-03 2.887860e-18 1.576180e-18 7.690910e-01 2.297290e-01 8.000000e+00 0.000000e+00 0.000000e+00
2.000000e+00 2.030000e+02 8.040000e+02 4.424220e-03 2.094130e-02 5.000000e-04 1.026150e+05 2.469950e+01 -4.230470e-01 0.000000e+00 2.881360e+02 1.180170e-03 2.887860e-18 1.576180e-18 7.690910e-01 2.297290e-01 8.000000e+00 0.000000e+00 0.000000e+00
2.000000e+00 2.040000e+02 8.440000e+02 4.509690e-03 2.142700e-02 5.000000e-04 1.025640e+05 2.656560e+01 2.869030e-01 0.000000e+00 2.880990e+02 2.212050e-05 3.985470e-19 2.175250e-19 7.699830e-01 2.299950e-01 5.000000e+00 0.000000e+00 0.000000e+00
2.000000e+00 2.050000e+02 8.440000e+02 4.442140e-03 2.191000e-02 5.000000e-04 1.025640e+05 2.656560e+01 2.869030e-01 0.000000e+00 2.880990e+02 2.212050e-05 3.985470e-19 2.175250e-19 7.699830e-01 2.299950e-01 5.000000e+00 0.000000e+00 0.000000e+00
2.000000e+00 2.060000e+02 8.840000e+02 4.334240e-03 2.238490e-02 5.000000e-04 1.025710e+05 2.571800e+01 4.852000e-01 0.000000e+00 2.881000e+02 6.240510e-05 2.388770e-18 1.303780e-18 7.699520e-01 2.299860e-01 5.000000e+00 0.000000e+00 0.000000e+00
2.000000e+00 2.070000e+02 8.840000e+02 4.330820e-03 2.287950e-02 5.000000e-04 1.025710e+05 2.571800e+01 4.852000e-01 0.000000e+00 2.881000e+02 6.240510e-05 2.388770e-18 1.303780e-18 7.699520e-01 2.299860e-01 5.000000e+00 0.000000e+00 0.000000e+00
2.000000e+00 2.080000e+02 9.240000e+02 4.135370e-03 2.337270e-02 5.000000e-04 1.025200e+05 2.659670e+01 5.103900e-01 0.000000e+00 2.881140e+02 9.063360e-04 3.227340e-17 1.761470e-17 7.693020e-01 2.297920e-01 5.000000e+00 0.000000e+00 0.000000e+00
2.000000e+00 2.090000e+02 9.230000e+02 3.269180e-03 2.382440e-02 5.000000e-04 1.025130e+05 2.666970e+01 3.197510e-02 0.000000e+00 2.880920e+02 7.777370e-04 2.788160e-17 1.521770e-17 7.694010e-01 2.298210e-01 5.000000e+00 0.000000e+00 0.000000e+00
2.000000e+00 2.100000e+02 2.427000e+03 -2.866140e-03 2.437130e-02 5.000000e-04 1.024500e+05 2.146450e+01 -3.128960e-01 0.000000e+00 2.880680e+02 5.338700e-07 4.309620e-20 2.352170e-20 7.700000e-01 2.300000e-01 8.000000e+00 0.000000e+00 0.000000e+00
2.000000e+00 2.110000e+02 2.448000e+03 -2.399660e-02 2.500000e-02 5.000000e-04 1.021600e+05 2.303380e+01 -1.301530e-01 0.000000e+00 2.877480e+02 8.300140e-31 1.476780e-40 8.060180e-41 7.700000e-01 2.300000e-01 9.000000e+00 0.000000e+00 0.000000e+00