# PROC_ID	PARCEL_ID	CellI	X	Y	Z	p	Ux	Uy	Uz	T	C3H8	CO2	H2O	N2	O2
2	68	21	0.0213444	0	0.0005	102855	23.6166	0.324976	0	288.219	1.22967e-06	2.23226e-19	1.21836e-19	0.769999	0.23
2	69	21	0.0213643	0.000869785	0.0005	102855	23.6166	0.324976	0	288.219	1.22967e-06	2.23226e-19	1.21836e-19	0.769999	0.23
2	70	61	0.0213875	0.00162418	0.0005	102853	23.6128	-0.12805	0	288.218	2.38885e-05	5.1588e-18	2.81565e-18	0.769982	0.229995
2	71	101	0.02137	0.00262054	0.0005	102847	23.5562	0.660782	0	288.236	0.000392999	1.8822e-16	1.02729e-16	0.769697	0.22991
2	72	141	0.0214811	0.00343228	0.0005	102841	23.6493	0.314069	0	288.474	0.00180009	5.01331e-16	2.73624e-16	0.768614	0.229586
2	73	181	0.0214579	0.00449872	0.0005	102834	23.3281	1.55552	0	289.877	0.00700876	3.01894e-15	1.64773e-15	0.764603	0.228388
2	74	221	0.0216424	0.00553964	0.0005	102827	23.9833	1.38577	0	293.701	0.0176049	9.87294e-15	5.38861e-15	0.756444	0.225951
2	75	261	0.0215885	0.0068478	0.0005	102843	22.9045	2.88795	0	301.689	0.0402872	5.02796e-14	2.74424e-14	0.738979	0.220734
2	76	341	0.0213715	0.00803462	0.0005	102819	21.9238	2.85666	0	321.462	0.106205	2.59292e-12	1.41521e-12	0.688222	0.205573
2	77	381	0.0213373	0.00982373	0.0005	102819	19.7002	2.42384	0	348.994	0.143624	1.22816e-11	6.70324e-12	0.659409	0.196966
2	78	420	0.0203589	0.0108871	0.0005	102821	16.4088	3.6013	0	364.947	0.169928	3.17484e-11	1.73282e-11	0.639156	0.190917
2	79	497	0.0171744	0.0128142	0.0005	102769	11.4595	1.80396	0	407.488	0.232496	1.03332e-09	5.6398e-10	0.590978	0.176526
2	80	536	0.0163965	0.0138719	0.0005	102774	10.9035	-0.31189	0	425.405	0.343168	3.09207e-09	1.68764e-09	0.50576	0.151071
2	81	456	0.0169373	0.0116644	0.0005	102761	11.8624	-0.735136	0	392.133	0.247397	1.04916e-09	5.72629e-10	0.579504	0.173099
2	82	2273	-0.0239966	0.011	0.0005	104084	22.5062	-0.148315	0	288.698	2.41381e-28	5.07318e-38	2.76892e-38	0.77	0.23
2	83	2298	-0.0239966	0.018	0.0005	102155	23.037	0.123015	0	287.745	2.75774e-29	4.73245e-39	2.58295e-39	0.77	0.23
2	84	771	0.011441	0.0197387	0.0005	102676	22.0671	0.333597	0	291.003	0.208442	4.07839e-14	2.22597e-14	0.609499	0.182058
2	85	697	0.0172416	0.0178037	0.0005	102753	15.9022	-2.48359	0	334.534	0.445178	8.84984e-12	4.83021e-12	0.427213	0.127609
2	86	740	0.0208363	0.0188293	0.0005	102750	24.5562	-4.47662	0	294.198	0.187362	8.54427e-13	4.66343e-13	0.625731	0.186907
2	87	741	0.0214654	0.0189858	0.0005	102733	25.807	-5.96796	0	291.596	0.14928	4.99064e-13	2.72387e-13	0.655054	0.195666
2	88	781	0.0213799	0.019162	0.0005	102738	25.5978	-7.17232	0	288.483	0.0470344	6.9678e-14	3.803e-14	0.733784	0.219182
2	89	781	0.0215155	0.0193652	0.0005	102738	25.5978	-7.17232	0	288.483	0.0470344	6.9678e-14	3.803e-14	0.733784	0.219182
2	90	781	0.0215361	0.0197317	0.0005	102738	25.5978	-7.17232	0	288.483	0.0470344	6.9678e-14	3.803e-14	0.733784	0.219182
2	91	821	0.0210938	0.0202292	0.0005	102739	23.8372	-7.83938	0	288.128	0.0184252	6.98001e-15	3.80966e-15	0.755813	0.225762
2	92	820	0.0204589	0.0207482	0.0005	102754	23.3939	-6.97633	0	288.159	0.0146642	8.83181e-15	4.82037e-15	0.758709	0.226627
2	93	859	0.0198106	0.0213437	0.0005	102754	20.9839	-6.49723	0	288.157	0.00707045	7.54493e-16	4.11799e-16	0.764556	0.228374
2	94	898	0.0188204	0.0221864	0.0005	102769	18.5003	-5.70966	0	288.182	0.00724942	2.73011e-16	1.49008e-16	0.764418	0.228333
2	95	936	0.0167159	0.0238184	0.0005	102758	18.3025	-4.02726	0	288.265	0.00484139	1.78003e-16	9.71536e-17	0.766272	0.228886
2	96	1011	0.0113947	0.0253627	0.0005	102670	12.4133	4.27787	0	288.275	0.00518433	1.90646e-16	1.04054e-16	0.766008	0.228808
2	97	2448	-0.0239966	0.025	0.0005	102160	23.0338	-0.130153	0	287.748	8.30014e-31	1.47678e-40	8.06018e-41	0.77	0.23
2	106	15	0.0154696	0	0.0005	102911	23.5476	0.03109	0	288.309	7.10345e-07	2.00478e-19	1.0942e-19	0.769999	0.23
2	107	15	0.0154772	0.00071044	0.0005	102911	23.5476	0.03109	0	288.309	7.10345e-07	2.00478e-19	1.0942e-19	0.769999	0.23
2	108	55	0.0154888	0.00132356	0.0005	102910	23.6772	-0.720428	0	288.309	2.47937e-05	1.1706e-17	6.38908e-18	0.769981	0.229994
2	109	95	0.0154985	0.002043	0.0005	102907	24.0074	-0.739487	0	288.311	0.000357086	3.625e-16	1.97851e-16	0.769725	0.229918
2	110	95	0.0155284	0.00267888	0.0005	102907	24.0074	-0.739487	0	288.311	0.000357086	3.625e-16	1.97851e-16	0.769725	0.229918
2	111	135	0.015531	0.00321231	0.0005	102902	24.5247	-1.57853	0	288.36	0.00455353	1.18898e-14	6.48938e-15	0.766494	0.228953
2	112	135	0.0155213	0.00383131	0.0005	102902	24.5247	-1.57853	0	288.36	0.00455353	1.18898e-14	6.48938e-15	0.766494	0.228953
2	113	175	0.0154545	0.00429451	0.0005	102889	25.486	-1.80621	0	289.067	0.0366184	2.4538e-13	1.33928e-13	0.741804	0.221578
2	114	175	0.0150675	0.00460451	0.0005	102889	25.486	-1.80621	0	289.067	0.0366184	2.4538e-13	1.33928e-13	0.741804	0.221578
2	115	174	0.0142741	0.00497085	0.0005	102921	24.3188	-3.14618	0	289.565	0.0428488	4.28202e-13	2.33711e-13	0.737006	0.220145
2	116	213	0.0131673	0.00557771	0.0005	102912	22.0179	-6.24117	0	299.635	0.163643	5.96985e-12	3.25832e-12	0.643995	0.192362
2	117	292	0.0123804	0.00779868	0.0005	102863	21.5556	-7.45588	0	364.481	0.288971	1.0419e-10	5.68666e-11	0.547493	0.163537
2	118	332	0.012762	0.00884112	0.0005	102886	23.334	-6.75246	0	411.647	0.333285	4.13761e-10	2.25829e-10	0.513371	0.153344
2	119	566	0.00631143	0.014004	0.0005	102804	9.56391	-0.167828	0	368.648	0.692893	8.16625e-13	4.45711e-13	0.236472	0.0706346
2	120	2273	-0.0239965	0.011	0.0005	104084	22.5062	-0.148315	0	288.698	2.41381e-28	5.07318e-38	2.76892e-38	0.77	0.23
2	121	2298	-0.0239966	0.018	0.0005	102155	23.037	0.123015	0	287.745	2.75774e-29	4.73245e-39	2.58295e-39	0.77	0.23
2	122	685	0.00568479	0.0179661	0.0005	102687	7.22216	-1.61174	0	297.679	0.486977	6.52987e-16	3.56398e-16	0.395028	0.117995
2	123	734	0.0140165	0.0188049	0.0005	102733	18.9888	-4.88742	0	293.024	0.164681	6.07062e-13	3.31332e-13	0.643196	0.192123
2	124	735	0.0152148	0.0186615	0.0005	102746	19.7928	-5.12864	0	293.775	0.154682	6.78816e-13	3.70495e-13	0.650895	0.194423
2	125	775	0.0156893	0.0191716	0.0005	102739	21.1238	-5.12721	0	288.818	0.0616278	4.69617e-14	2.56315e-14	0.722547	0.215826
2	126	775	0.0156939	0.0199012	0.0005	102739	21.1238	-5.12721	0	288.818	0.0616278	4.69617e-14	2.56315e-14	0.722547	0.215826
2	127	815	0.0157622	0.0205783	0.0005	102749	20.9405	-4.25419	0	288.338	0.0190221	3.21023e-15	1.75213e-15	0.755353	0.225625
2	128	855	0.015764	0.021216	0.0005	102743	20.8958	-3.67298	0	288.282	0.00349616	1.13416e-16	6.19022e-17	0.767308	0.229196
2	129	855	0.0154998	0.0218731	0.0005	102743	20.8958	-3.67298	0	288.282	0.00349616	1.13416e-16	6.19022e-17	0.767308	0.229196
2	130	895	0.0152037	0.0226258	0.0005	102760	19.2143	-3.25352	0	288.286	0.00137373	4.04301e-17	2.20666e-17	0.768942	0.229684
2	131	935	0.0150166	0.0234735	0.0005	102756	19.0378	-2.75056	0	288.302	0.00255561	9.19479e-17	5.01848e-17	0.768032	0.229412
2	132	974	0.0146177	0.0242929	0.0005	102770	17.9704	-1.57857	0	288.334	0.00542734	1.9716e-16	1.07609e-16	0.765821	0.228752
2	133	1013	0.0130944	0.0252623	0.0005	102756	10.3502	3.46304	0	288.208	0.0096244	3.6357e-16	1.98435e-16	0.762589	0.227786
2	134	966	0.0067774	0.0244887	0.0005	102532	22.7774	2.66526	0	288.154	0.00561353	1.95177e-16	1.06527e-16	0.765678	0.228709
2	135	2448	-0.0239966	0.025	0.0005	102160	23.0338	-0.130153	0	287.748	8.30014e-31	1.47678e-40	8.06018e-41	0.77	0.23
2	144	9	0.0092385	0	0.0005	103038	21.1401	0.0957106	0	288.374	4.91042e-09	3.05235e-21	1.66596e-21	0.77	0.23
2	145	9	0.00924529	0.000783602	0.0005	103038	21.1401	0.0957106	0	288.374	4.91042e-09	3.05235e-21	1.66596e-21	0.77	0.23
2	146	49	0.00924584	0.00154645	0.0005	103035	21.1514	-0.57979	0	288.374	2.57326e-07	2.08848e-20	1.13989e-20	0.77	0.23
2	147	89	0.00919906	0.00236536	0.0005	103033	20.938	-0.241947	0	288.373	8.33586e-06	1.96842e-19	1.07436e-19	0.769994	0.229998
2	148	129	0.00924489	0.00314752	0.0005	103020	21.024	-0.851532	0	288.372	0.000101896	2.16805e-18	1.18331e-18	0.769922	0.229977
2	149	169	0.00916886	0.00400201	0.0005	103012	20.4917	0.0462162	0	288.391	0.000954085	2.48734e-17	1.35758e-17	0.769265	0.229781
2	150	169	0.00920177	0.00486446	0.0005	103012	20.4917	0.0462162	0	288.391	0.000954085	2.48734e-17	1.35758e-17	0.769265	0.229781
2	151	209	0.00920743	0.00580828	0.0005	102992	21.0759	-0.462693	0	288.591	0.00522527	2.8041e-16	1.53047e-16	0.765977	0.228798
2	152	249	0.00914552	0.00680805	0.0005	102980	19.2631	1.7912	0	290.09	0.0224402	3.3209e-15	1.81253e-15	0.752721	0.224839
2	153	329	0.0094435	0.00802623	0.0005	102910	19.6717	4.31706	0	307.27	0.0696284	6.49419e-13	3.5445e-13	0.716386	0.213985
2	154	368	0.0088724	0.00906258	0.0005	102892	14.9488	4.20384	0	395.75	0.0686068	5.77004e-12	3.14927e-12	0.717173	0.21422
2	155	449	0.00936059	0.0110907	0.0005	102848	18.7588	3.30042	0	430.591	0.13912	9.78259e-11	5.3393e-11	0.662878	0.198002
2	156	488	0.00876669	0.0128347	0.0005	102840	14.4958	5.27841	0	422.586	0.187033	5.64689e-11	3.08205e-11	0.625985	0.186982
2	157	487	0.00702584	0.0126673	0.0005	102843	12.2173	5.62899	0	412.133	0.163837	2.43078e-11	1.32671e-11	0.643845	0.192317
2	158	2273	-0.0239966	0.011	0.0005	104084	22.5062	-0.148315	0	288.698	2.41381e-28	5.07318e-38	2.76892e-38	0.77	0.23
2	159	2298	-0.0239966	0.018	0.0005	102155	23.037	0.123015	0	287.745	2.75774e-29	4.73245e-39	2.58295e-39	0.77	0.23
2	160	721	0.00194931	0.0186491	0.0005	102567	21.2535	0.097571	0	288.196	0.0927646	2.02672e-17	1.10618e-17	0.698571	0.208664
2	161	767	0.00793973	0.0193148	0.0005	102684	22.466	3.37619	0	289.418	0.106638	4.02593e-16	2.19734e-16	0.687889	0.205473
2	162	809	0.00934209	0.0202808	0.0005	102684	24.7609	2.88669	0	288.798	0.0700092	2.12255e-15	1.15848e-15	0.716093	0.213898
2	163	809	0.00988926	0.020697	0.0005	102684	24.7609	2.88669	0	288.798	0.0700092	2.12255e-15	1.15848e-15	0.716093	0.213898
2	164	850	0.0100985	0.0211037	0.0005	102671	24.8245	2.11397	0	288.297	0.0178839	1.87731e-16	1.02463e-16	0.756229	0.225887
2	165	850	0.0103167	0.0216189	0.0005	102671	24.8245	2.11397	0	288.297	0.0178839	1.87731e-16	1.02463e-16	0.756229	0.225887
2	166	890	0.0104555	0.0220825	0.0005	102669	24.7561	2.45015	0	288.249	0.00433655	3.24181e-17	1.76937e-17	0.766661	0.229003
2	167	890	0.0104675	0.0225078	0.0005	102669	24.7561	2.45015	0	288.249	0.00433655	3.24181e-17	1.76937e-17	0.766661	0.229003
2	168	890	0.0103926	0.0229258	0.0005	102669	24.7561	2.45015	0	288.249	0.00433655	3.24181e-17	1.76937e-17	0.766661	0.229003
2	169	930	0.0103363	0.0233825	0.0005	102650	23.6834	3.33061	0	288.26	0.00227037	5.33373e-17	2.91113e-17	0.768252	0.229478
2	170	929	0.00999058	0.023815	0.0005	102619	24.4182	3.43636	0	288.226	0.00217796	5.58278e-17	3.04706e-17	0.768323	0.229499
2	171	968	0.00887576	0.0241508	0.0005	102575	22.8164	3.88397	0	288.19	0.00471136	1.60976e-16	8.78601e-17	0.766372	0.228916
2	172	961	0.00182068	0.024265	0.0005	102524	20.8516	-1.10683	0	288.136	0.00330867	1.1351e-16	6.19532e-17	0.767452	0.229239
2	173	2448	-0.0239966	0.025	0.0005	102160	23.0338	-0.130153	0	287.748	8.30014e-31	1.47678e-40	8.06018e-41	0.77	0.23
2	182	3	0.00356865	0	0.0005	103259	20.0961	-0.125741	0	288.441	4.08538e-12	4.00452e-23	2.18565e-23	0.77	0.23
2	183	3	0.00357795	0.000752941	0.0005	103259	20.0961	-0.125741	0	288.441	4.08538e-12	4.00452e-23	2.18565e-23	0.77	0.23
2	184	43	0.00358991	0.00152476	0.0005	103252	20.1309	-0.624228	0	288.438	3.52363e-10	4.39529e-22	2.39893e-22	0.77	0.23
2	185	83	0.00359212	0.0022625	0.0005	103242	20.1614	-0.920156	0	288.434	1.61488e-08	3.44158e-21	1.8784e-21	0.77	0.23
2	186	123	0.00362452	0.00302838	0.0005	103232	20.2587	-1.49081	0	288.427	6.37654e-07	2.30054e-20	1.25563e-20	0.77	0.23
2	187	123	0.00364649	0.00376501	0.0005	103232	20.2587	-1.49081	0	288.427	6.37654e-07	2.30054e-20	1.25563e-20	0.77	0.23
2	188	163	0.00367497	0.00447901	0.0005	103224	20.4489	-2.05561	0	288.423	2.15365e-05	1.40032e-19	7.6429e-20	0.769983	0.229995
2	189	203	0.00374284	0.00520727	0.0005	103221	20.6528	-2.99001	0	288.415	0.000565284	8.75105e-19	4.77629e-19	0.769565	0.22987
2	190	203	0.00378016	0.00586656	0.0005	103221	20.6528	-2.99001	0	288.415	0.000565284	8.75105e-19	4.77629e-19	0.769565	0.22987
2	191	243	0.00387034	0.0065178	0.0005	103209	21.4473	-4.44291	0	288.423	0.00944067	4.99111e-18	2.72413e-18	0.762731	0.227829
2	192	283	0.00395034	0.00708385	0.0005	103194	21.4249	-6.91036	0	288.554	0.0807339	2.16615e-17	1.18228e-17	0.707835	0.211431
2	193	283	0.00387409	0.00754101	0.0005	103194	21.4249	-6.91036	0	288.554	0.0807339	2.16615e-17	1.18228e-17	0.707835	0.211431
2	194	283	0.00334868	0.00790721	0.0005	103194	21.4249	-6.91036	0	288.554	0.0807339	2.16615e-17	1.18228e-17	0.707835	0.211431
2	195	360	0.000878153	0.00986869	0.0005	103099	16.6549	2.33514	0	288.384	0.0361762	1.17836e-17	6.43145e-18	0.742144	0.221679
2	196	2273	-0.0239966	0.011	0.0005	104084	22.5062	-0.148315	0	288.698	2.41381e-28	5.07318e-38	2.76892e-38	0.77	0.23
2	197	2298	-0.0239966	0.018	0.0005	102155	23.037	0.123015	0	287.745	2.75774e-29	4.73245e-39	2.58295e-39	0.77	0.23
2	198	2277	-0.00279197	0.0186247	0.0005	102457	21.5103	0.359545	0	288.069	1.39278e-05	1.1685e-19	6.37764e-20	0.769989	0.229997
2	199	763	0.00337783	0.0190159	0.0005	102582	26.2571	-1.14598	0	288.139	0.0109984	8.14501e-18	4.44551e-18	0.761531	0.22747
2	200	764	0.00419029	0.0194096	0.0005	102600	25.856	-1.22253	0	288.146	0.0133687	1.04412e-17	5.69876e-18	0.759706	0.226925
2	201	764	0.00436282	0.0199176	0.0005	102600	25.856	-1.22253	0	288.146	0.0133687	1.04412e-17	5.69876e-18	0.759706	0.226925
2	202	804	0.00433694	0.0204395	0.0005	102615	24.6995	-0.423047	0	288.136	0.00118017	2.88786e-18	1.57618e-18	0.769091	0.229729
2	203	804	0.00442422	0.0209413	0.0005	102615	24.6995	-0.423047	0	288.136	0.00118017	2.88786e-18	1.57618e-18	0.769091	0.229729
2	204	844	0.00450969	0.021427	0.0005	102564	26.5656	0.286903	0	288.099	2.21205e-05	3.98547e-19	2.17525e-19	0.769983	0.229995
2	205	844	0.00444214	0.02191	0.0005	102564	26.5656	0.286903	0	288.099	2.21205e-05	3.98547e-19	2.17525e-19	0.769983	0.229995
2	206	884	0.00433424	0.0223849	0.0005	102571	25.718	0.4852	0	288.1	6.24051e-05	2.38877e-18	1.30378e-18	0.769952	0.229986
2	207	884	0.00433082	0.0228795	0.0005	102571	25.718	0.4852	0	288.1	6.24051e-05	2.38877e-18	1.30378e-18	0.769952	0.229986
2	208	924	0.00413537	0.0233727	0.0005	102520	26.5967	0.51039	0	288.114	0.000906336	3.22734e-17	1.76147e-17	0.769302	0.229792
2	209	923	0.00326918	0.0238244	0.0005	102513	26.6697	0.0319751	0	288.092	0.000777737	2.78816e-17	1.52177e-17	0.769401	0.229821
2	210	2427	-0.00286614	0.0243713	0.0005	102450	21.4645	-0.312896	0	288.068	5.3387e-07	4.30962e-20	2.35217e-20	0.77	0.23
2	211	2448	-0.0239966	0.025	0.0005	102160	23.0338	-0.130153	0	287.748	8.30014e-31	1.47678e-40	8.06018e-41	0.77	0.23
2	220	2002	-0.00246325	0	0.0005	103507	19.0671	-0.112831	0	288.411	1.35326e-18	5.11841e-29	2.79361e-29	0.77	0.23
2	221	2002	-0.00246568	0.000753599	0.0005	103507	19.0671	-0.112831	0	288.411	1.35326e-18	5.11841e-29	2.79361e-29	0.77	0.23
2	222	2027	-0.0024668	0.00153482	0.0005	103507	19.0627	-0.315887	0	288.41	1.26252e-16	4.64718e-27	2.53641e-27	0.77	0.23
2	223	2052	-0.00247286	0.00227553	0.0005	103506	18.948	-0.51378	0	288.41	5.76159e-15	2.11996e-25	1.15707e-25	0.77	0.23
2	224	2077	-0.00247091	0.00305518	0.0005	103500	18.9638	-0.626011	0	288.406	2.63342e-13	9.9885e-24	5.45168e-24	0.77	0.23
2	225	2077	-0.00247788	0.00381326	0.0005	103500	18.9638	-0.626011	0	288.406	2.63342e-13	9.9885e-24	5.45168e-24	0.77	0.23
2	226	2102	-0.00248953	0.00456199	0.0005	103491	18.7229	-0.80527	0	288.404	9.18346e-12	7.13517e-23	3.89434e-23	0.77	0.23
2	227	2127	-0.00248741	0.00535068	0.0005	103483	18.8364	-0.768581	0	288.398	2.75324e-10	4.25385e-22	2.32173e-22	0.77	0.23
2	228	2152	-0.00251004	0.00609074	0.0005	103471	18.3922	-0.990152	0	288.396	7.51589e-09	2.40045e-21	1.31016e-21	0.77	0.23
2	229	2152	-0.00250801	0.00687693	0.0005	103471	18.3922	-0.990152	0	288.396	7.51589e-09	2.40045e-21	1.31016e-21	0.77	0.23
2	230	2177	-0.00251505	0.00765182	0.0005	103462	18.8265	-0.649256	0	288.386	1.76315e-07	1.215e-20	6.6314e-21	0.77	0.23
2	231	2202	-0.00255401	0.00840769	0.0005	103444	18.0002	-0.835897	0	288.392	5.41573e-06	7.98211e-20	4.3566e-20	0.769996	0.229999
2	232	2227	-0.0026838	0.00923878	0.0005	103427	18.5721	-0.0148993	0	288.414	0.00011854	4.28752e-19	2.34011e-19	0.769909	0.229973
2	233	2254	-0.00405904	0.0100352	0.0005	103543	15.0157	-0.194831	0	288.466	4.07731e-06	6.90826e-20	3.7705e-20	0.769997	0.229999
2	234	2273	-0.0239966	0.011	0.0005	104084	22.5062	-0.148315	0	288.698	2.41381e-28	5.07318e-38	2.76892e-38	0.77	0.23
2	235	2298	-0.0239966	0.018	0.0005	102155	23.037	0.123015	0	287.745	2.75774e-29	4.73245e-39	2.58295e-39	0.77	0.23
2	236	2282	-0.00727872	0.0186056	0.0005	102332	22.0615	0.120688	0	287.918	1.04269e-11	1.32801e-22	7.24823e-23	0.77	0.23
2	237	2302	-0.00228823	0.0191011	0.0005	102450	25.1831	-0.0281601	0	288.009	8.6562e-07	3.06381e-20	1.67221e-20	0.769999	0.23
2	238	2301	-0.0017431	0.0195736	0.0005	102472	25.1309	0.201435	0	288.029	1.56383e-05	1.27451e-19	6.95621e-20	0.769988	0.229996
2	239	2326	-0.0015852	0.0200594	0.0005	102487	25.201	0.0150703	0	288.014	2.80339e-07	1.51387e-20	8.26262e-21	0.77	0.23
2	240	2326	-0.00158488	0.0205431	0.0005	102487	25.201	0.0150703	0	288.014	2.80339e-07	1.51387e-20	8.26262e-21	0.77	0.23
2	241	2351	-0.00155699	0.0210185	0.0005	102463	25.7422	0.0160136	0	287.996	2.4245e-09	1.40316e-21	7.65842e-22	0.77	0.23
2	242	2351	-0.00153791	0.0214884	0.0005	102463	25.7422	0.0160136	0	287.996	2.4245e-09	1.40316e-21	7.65842e-22	0.77	0.23
2	243	2351	-0.00156105	0.0219614	0.0005	102463	25.7422	0.0160136	0	287.996	2.4245e-09	1.40316e-21	7.65842e-22	0.77	0.23
2	244	2376	-0.00159292	0.0224353	0.0005	102480	25.179	-0.313763	0	288.013	1.41242e-08	4.41984e-21	2.41233e-21	0.77	0.23
2	245	2376	-0.00159849	0.0229201	0.0005	102480	25.179	-0.313763	0	288.013	1.41242e-08	4.41984e-21	2.41233e-21	0.77	0.23
2	246	2401	-0.0017592	0.0234097	0.0005	102465	25.1027	-0.143985	0	288.03	6.29206e-07	4.89912e-20	2.67392e-20	0.77	0.23
2	247	2402	-0.00230544	0.0238883	0.0005	102443	25.0063	-0.111415	0	288.009	3.78442e-08	8.41839e-21	4.59473e-21	0.77	0.23
2	248	2432	-0.00734683	0.0243964	0.0005	102329	22.0517	-0.125879	0	287.917	6.43393e-13	3.09284e-23	1.68806e-23	0.77	0.23
2	249	2448	-0.0239966	0.025	0.0005	102160	23.0338	-0.130153	0	287.748	8.30014e-31	1.47678e-40	8.06018e-41	0.77	0.23
2	258	2008	-0.00815531	0	0.0005	103770	19.4864	-0.0495349	0	288.534	6.56299e-28	1.23035e-37	6.71522e-38	0.77	0.23
2	259	2008	-0.0081526	0.000768742	0.0005	103770	19.4864	-0.0495349	0	288.534	6.56299e-28	1.23035e-37	6.71522e-38	0.77	0.23
2	260	2033	-0.00815206	0.00155852	0.0005	103770	19.4919	-0.0253466	0	288.533	4.46652e-26	8.81425e-36	4.81078e-36	0.77	0.23
2	261	2058	-0.00815331	0.00231812	0.0005	103771	19.4548	-0.140868	0	288.534	2.33376e-24	4.83941e-34	2.64133e-34	0.77	0.23
2	262	2083	-0.00815205	0.00310728	0.0005	103771	19.4735	-0.125738	0	288.535	1.31446e-22	2.68565e-32	1.46582e-32	0.77	0.23
2	263	2083	-0.00815307	0.0038794	0.0005	103771	19.4735	-0.125738	0	288.535	1.31446e-22	2.68565e-32	1.46582e-32	0.77	0.23
2	264	2108	-0.00815337	0.00464478	0.0005	103770	19.3976	-0.25662	0	288.533	7.17321e-21	1.28684e-30	7.02352e-31	0.77	0.23
2	265	2133	-0.00814832	0.00544066	0.0005	103767	19.4476	-0.216459	0	288.531	4.22367e-19	5.60342e-29	3.05832e-29	0.77	0.23
2	266	2158	-0.00815244	0.00619744	0.0005	103762	19.3423	-0.332814	0	288.53	1.96847e-17	2.15721e-27	1.1774e-27	0.77	0.23
2	267	2158	-0.00814381	0.00698911	0.0005	103762	19.3423	-0.332814	0	288.53	1.96847e-17	2.15721e-27	1.1774e-27	0.77	0.23
2	268	2183	-0.00813745	0.0077678	0.0005	103756	19.4502	-0.247839	0	288.527	9.58874e-16	8.89192e-26	4.85317e-26	0.77	0.23
2	269	2208	-0.00813539	0.00852886	0.0005	103749	19.3362	-0.335917	0	288.527	6.69893e-14	5.47249e-24	2.98686e-24	0.77	0.23
2	270	2233	-0.00817301	0.00933433	0.0005	103744	19.2832	-0.23132	0	288.535	3.08603e-12	4.73524e-23	2.58447e-23	0.77	0.23
2	271	2259	-0.00915286	0.0100948	0.0005	103778	16.8596	-0.202897	0	288.576	2.26164e-12	3.97471e-23	2.16938e-23	0.77	0.23
2	272	2273	-0.0239967	0.011	0.0005	104084	22.5062	-0.148315	0	288.698	2.41381e-28	5.07318e-38	2.76892e-38	0.77	0.23
2	273	2298	-0.0239966	0.018	0.0005	102155	23.037	0.123015	0	287.745	2.75774e-29	4.73245e-39	2.58295e-39	0.77	0.23
2	274	2286	-0.0118633	0.0185803	0.0005	102257	22.2945	0.123483	0	287.869	7.07081e-16	1.8025e-25	9.83798e-26	0.77	0.23
2	275	2308	-0.00801014	0.0190797	0.0005	102313	24.6811	0.097752	0	287.843	5.83348e-14	9.14895e-24	4.99346e-24	0.77	0.23
2	276	2307	-0.00770872	0.01956	0.0005	102332	24.7238	0.0955592	0	287.863	7.78823e-13	3.72556e-23	2.0334e-23	0.77	0.23
2	277	2332	-0.00762961	0.0200484	0.0005	102332	24.8284	0.0540202	0	287.847	1.92403e-14	3.93806e-24	2.14938e-24	0.77	0.23
2	278	2332	-0.00764407	0.0205351	0.0005	102332	24.8284	0.0540202	0	287.847	1.92403e-14	3.93806e-24	2.14938e-24	0.77	0.23
2	279	2357	-0.00763583	0.0210188	0.0005	102331	24.9086	-0.0123973	0	287.844	4.43099e-16	6.97235e-26	3.80548e-26	0.77	0.23
2	280	2357	-0.00762821	0.021499	0.0005	102331	24.9086	-0.0123973	0	287.844	4.43099e-16	6.97235e-26	3.80548e-26	0.77	0.23
2	281	2357	-0.00763637	0.0219819	0.0005	102331	24.9086	-0.0123973	0	287.844	4.43099e-16	6.97235e-26	3.80548e-26	0.77	0.23
2	282	2382	-0.00764492	0.0224631	0.0005	102331	24.8291	-0.0883818	0	287.848	1.67321e-15	2.19204e-25	1.19641e-25	0.77	0.23
2	283	2382	-0.00763086	0.0229497	0.0005	102331	24.8291	-0.0883818	0	287.848	1.67321e-15	2.19204e-25	1.19641e-25	0.77	0.23
2	284	2407	-0.0077104	0.0234386	0.0005	102330	24.7349	-0.114017	0	287.862	5.05822e-14	7.58328e-24	4.13892e-24	0.77	0.23
2	285	2408	-0.00801191	0.0239192	0.0005	102315	24.6821	-0.125823	0	287.844	4.02891e-15	7.25729e-25	3.961e-25	0.77	0.23
2	286	2436	-0.0119065	0.0244227	0.0005	102269	22.2671	-0.12833	0	287.874	6.01959e-17	1.48311e-26	8.09476e-27	0.77	0.23
2	287	2448	-0.0239966	0.025	0.0005	102160	23.0338	-0.130153	0	287.748	8.30014e-31	1.47678e-40	8.06018e-41	0.77	0.23
2	296	2013	-0.0139373	0	0.0005	103947	20.2616	-0.0421624	0	288.393	9.78469e-33	2.19217e-42	1.19648e-42	0.77	0.23
2	297	2013	-0.0139384	0.000777309	0.0005	103947	20.2616	-0.0421624	0	288.393	9.78469e-33	2.19217e-42	1.19648e-42	0.77	0.23
2	298	2038	-0.0139386	0.00156756	0.0005	103947	20.2656	-0.00899837	0	288.394	7.7917e-31	1.79622e-40	9.80372e-41	0.77	0.23
2	299	2063	-0.0139386	0.00233967	0.0005	103945	20.2636	-0.0941626	0	288.395	4.02427e-29	9.53966e-39	5.20671e-39	0.77	0.23
2	300	2088	-0.0139385	0.0031297	0.0005	103944	20.274	-0.0548867	0	288.39	1.71502e-27	4.07352e-37	2.22331e-37	0.77	0.23
2	301	2088	-0.0139385	0.00390783	0.0005	103944	20.274	-0.0548867	0	288.39	1.71502e-27	4.07352e-37	2.22331e-37	0.77	0.23
2	302	2113	-0.0139383	0.00468266	0.0005	103943	20.2639	-0.144644	0	288.393	1.09811e-25	2.75816e-35	1.50539e-35	0.77	0.23
2	303	2138	-0.0139372	0.00547589	0.0005	103942	20.2805	-0.0956555	0	288.39	3.59573e-24	9.30871e-34	5.08066e-34	0.77	0.23
2	304	2163	-0.0139372	0.00624365	0.0005	103941	20.2573	-0.194036	0	288.391	1.07869e-22	2.90588e-32	1.58602e-32	0.77	0.23
2	305	2188	-0.0139331	0.0070351	0.0005	103940	20.2949	-0.129549	0	288.387	3.49602e-21	9.81758e-31	5.35839e-31	0.77	0.23
2	306	2188	-0.0139306	0.00781426	0.0005	103940	20.2949	-0.129549	0	288.387	3.49602e-21	9.81758e-31	5.35839e-31	0.77	0.23
2	307	2213	-0.013925	0.00858457	0.0005	103938	20.2666	-0.237534	0	288.387	1.11263e-19	3.13383e-29	1.71043e-29	0.77	0.23
2	308	2238	-0.0139308	0.00938097	0.0005	103937	20.3379	-0.156323	0	288.393	2.92649e-18	6.9725e-28	3.80556e-28	0.77	0.23
2	309	2264	-0.0145489	0.0101398	0.0005	103969	18.797	-0.220442	0	288.381	1.88939e-18	4.61121e-28	2.51678e-28	0.77	0.23
2	310	2273	-0.0239966	0.011	0.0005	104084	22.5062	-0.148315	0	288.698	2.41381e-28	5.07318e-38	2.76892e-38	0.77	0.23
2	311	2298	-0.0239966	0.018	0.0005	102155	23.037	0.123015	0	287.745	2.75774e-29	4.73245e-39	2.58295e-39	0.77	0.23
2	312	2291	-0.016318	0.0185538	0.0005	102188	22.6578	0.172938	0	287.838	8.50942e-21	1.64096e-30	8.95629e-31	0.77	0.23
2	313	2313	-0.0136704	0.0190507	0.0005	102224	24.2935	0.109175	0	287.86	1.3597e-18	2.98286e-28	1.62804e-28	0.77	0.23
2	314	2313	-0.0135467	0.0195341	0.0005	102224	24.2935	0.109175	0	287.86	1.3597e-18	2.98286e-28	1.62804e-28	0.77	0.23
2	315	2338	-0.0135211	0.0200279	0.0005	102225	24.1905	0.0651154	0	287.859	3.51127e-20	7.1011e-30	3.87575e-30	0.77	0.23
2	316	2338	-0.0135349	0.0205212	0.0005	102225	24.1905	0.0651154	0	287.859	3.51127e-20	7.1011e-30	3.87575e-30	0.77	0.23
2	317	2363	-0.0135341	0.0210123	0.0005	102227	24.2585	0.00133708	0	287.858	4.50463e-22	8.42658e-32	4.5992e-32	0.77	0.23
2	318	2363	-0.0135303	0.0215001	0.0005	102227	24.2585	0.00133708	0	287.858	4.50463e-22	8.42658e-32	4.5992e-32	0.77	0.23
2	319	2363	-0.0135341	0.0219905	0.0005	102227	24.2585	0.00133708	0	287.858	4.50463e-22	8.42658e-32	4.5992e-32	0.77	0.23
2	320	2388	-0.0135349	0.0224789	0.0005	102228	24.1807	-0.0631216	0	287.859	1.93261e-21	4.35677e-31	2.3779e-31	0.77	0.23
2	321	2388	-0.0135212	0.022972	0.0005	102228	24.1807	-0.0631216	0	287.859	1.93261e-21	4.35677e-31	2.3779e-31	0.77	0.23
2	322	2413	-0.0135468	0.023466	0.0005	102230	24.276	-0.107414	0	287.863	5.98623e-20	1.44921e-29	7.90971e-30	0.77	0.23
2	323	2413	-0.0136706	0.0239492	0.0005	102230	24.276	-0.107414	0	287.863	5.98623e-20	1.44921e-29	7.90971e-30	0.77	0.23
2	324	2441	-0.0163556	0.0244495	0.0005	102181	22.6672	-0.170421	0	287.838	5.15355e-22	1.04922e-31	5.72659e-32	0.77	0.23
2	325	2448	-0.0239966	0.025	0.0005	102160	23.0338	-0.130153	0	287.748	8.30014e-31	1.47678e-40	8.06018e-41	0.77	0.23
2	334	2019	-0.0196348	0	0.0005	104049	21.6333	-0.0275033	0	288.675	2.88797e-39	6.14304e-49	3.35284e-49	0.77	0.23
2	335	2019	-0.0196355	0.000782139	0.0005	104049	21.6333	-0.0275033	0	288.675	2.88797e-39	6.14304e-49	3.35284e-49	0.77	0.23
2	336	2044	-0.0196357	0.00157025	0.0005	104049	21.6305	-0.0105507	0	288.676	1.60685e-37	3.33319e-47	1.81924e-47	0.77	0.23
2	337	2069	-0.0196355	0.00235122	0.0005	104050	21.6294	-0.0626327	0	288.681	7.58157e-36	1.53505e-45	8.37827e-46	0.77	0.23
2	338	2094	-0.0196354	0.00313938	0.0005	104052	21.6248	-0.0339403	0	288.677	4.73913e-34	9.51681e-44	5.19423e-44	0.77	0.23
2	339	2094	-0.0196351	0.00392169	0.0005	104052	21.6248	-0.0339403	0	288.677	4.73913e-34	9.51681e-44	5.19423e-44	0.77	0.23
2	340	2119	-0.0196352	0.00470332	0.0005	104053	21.6257	-0.0868093	0	288.68	2.00037e-32	3.98344e-42	2.17415e-42	0.77	0.23
2	341	2144	-0.0196354	0.00549225	0.0005	104056	21.6279	-0.0452918	0	288.677	9.62722e-31	1.95409e-40	1.06653e-40	0.77	0.23
2	342	2169	-0.0196347	0.00627194	0.0005	104057	21.6299	-0.112972	0	288.68	4.49269e-29	9.57243e-39	5.2246e-39	0.77	0.23
2	343	2194	-0.0196336	0.00706105	0.0005	104060	21.6505	-0.0611529	0	288.679	2.0476e-27	4.61239e-37	2.51742e-37	0.77	0.23
2	344	2194	-0.0196332	0.00784315	0.0005	104060	21.6505	-0.0611529	0	288.679	2.0476e-27	4.61239e-37	2.51742e-37	0.77	0.23
2	345	2219	-0.019631	0.00862597	0.0005	104060	21.6447	-0.1574	0	288.682	6.0001e-26	1.39842e-35	7.63253e-36	0.77	0.23
2	346	2244	-0.0196296	0.00941337	0.0005	104063	21.7638	-0.090535	0	288.68	1.85918e-24	4.49734e-34	2.45463e-34	0.77	0.23
2	347	2269	-0.0199037	0.0101855	0.0005	104062	20.9391	-0.228433	0	288.684	1.82643e-23	4.5885e-33	2.50439e-33	0.77	0.23
2	348	2274	-0.0240131	0.011	0.0005	104076	22.9119	-0.0924774	0	288.385	1.03071e-29	2.09267e-39	1.14217e-39	0.77	0.23
2	349	2299	-0.0240131	0.018	0.0005	102157	22.9975	0.0822519	0	287.872	3.76244e-31	6.9133e-41	3.77325e-41	0.77	0.23
2	350	2295	-0.020761	0.0185217	0.0005	102169	22.9103	0.179484	0	287.614	2.46612e-25	4.0957e-35	2.23541e-35	0.77	0.23
2	351	2319	-0.019438	0.0190187	0.0005	102174	23.6277	0.0699929	0	287.631	1.8329e-25	3.06585e-35	1.67333e-35	0.77	0.23
2	352	2319	-0.0194171	0.0195099	0.0005	102174	23.6277	0.0699929	0	287.631	1.8329e-25	3.06585e-35	1.67333e-35	0.77	0.23
2	353	2344	-0.0194134	0.020009	0.0005	102169	23.522	0.0508678	0	287.633	4.48152e-27	7.38789e-37	4.03228e-37	0.77	0.23
2	354	2344	-0.0194174	0.0205072	0.0005	102169	23.522	0.0508678	0	287.633	4.48152e-27	7.38789e-37	4.03228e-37	0.77	0.23
2	355	2369	-0.0194179	0.0210049	0.0005	102170	23.56	-0.00831309	0	287.631	8.38556e-29	1.40023e-38	7.64243e-39	0.77	0.23
2	356	2369	-0.0194178	0.0215001	0.0005	102170	23.56	-0.00831309	0	287.631	8.38556e-29	1.40023e-38	7.64243e-39	0.77	0.23
2	357	2369	-0.019418	0.0219981	0.0005	102170	23.56	-0.00831309	0	287.631	8.38556e-29	1.40023e-38	7.64243e-39	0.77	0.23
2	358	2394	-0.0194174	0.0224931	0.0005	102165	23.5321	-0.0651362	0	287.632	2.30612e-28	3.52134e-38	1.92193e-38	0.77	0.23
2	359	2394	-0.0194135	0.022991	0.0005	102165	23.5321	-0.0651362	0	287.632	2.30612e-28	3.52134e-38	1.92193e-38	0.77	0.23
2	360	2419	-0.0194171	0.0234902	0.0005	102166	23.6455	-0.0797802	0	287.629	8.54408e-27	1.2946e-36	7.0659e-37	0.77	0.23
2	361	2419	-0.019438	0.0239813	0.0005	102166	23.6455	-0.0797802	0	287.629	8.54408e-27	1.2946e-36	7.0659e-37	0.77	0.23
2	362	2445	-0.0207754	0.0244815	0.0005	102162	22.9259	-0.185362	0	287.609	9.05794e-27	1.38755e-36	7.57321e-37	0.77	0.23
2	363	2449	-0.0240131	0.025	0.0005	102164	22.9962	-0.089282	0	287.872	2.67787e-32	5.19504e-42	2.83543e-42	0.77	0.23
