#           y             T         TMean   TPrime2Mean           U_x           U_y           U_z       UMean_x       UMean_y       UMean_z UPrime2Mea... UPrime2Mea... UPrime2Mea... UPrime2Mea... UPrime2Mea... UPrime2Mea...            O2           H2O          C3H8             p         pMean   pPrime2Mean           CO2
         0.04       288.385       288.381      0.108756      -1.64755      -6.66694             0      -5.04282      -7.55854             0       21.2458       6.53701             0       36.6954             0             0      0.207817   1.17579e-15     0.0964468        102768        103088        226190   2.15426e-15
     0.039975       288.385        288.38      0.108892       -1.6375      -6.67587             0      -5.03622      -7.56613             0       21.2796       6.43955             0       36.8581             0             0      0.207845   1.17611e-15     0.0963259        102768        103087        226182   2.15486e-15
    0.0399499       288.385        288.38      0.109029      -1.62745       -6.6848             0      -5.02961      -7.57373             0       21.3134       6.34208             0       37.0207             0             0      0.207873   1.17644e-15      0.096205        102768        103087        226174   2.15546e-15
    0.0399249       288.385        288.38      0.109166       -1.6174      -6.69374             0      -5.02301      -7.58132             0       21.3471       6.24462             0       37.1834             0             0      0.207901   1.17677e-15     0.0960841        102768        103087        226166   2.15606e-15
    0.0398999       288.385       288.379      0.109303      -1.60735      -6.70267             0      -5.01641      -7.58891             0       21.3809       6.14716             0       37.3461             0             0      0.207928   1.17709e-15     0.0959632        102767        103087        226158   2.15665e-15
    0.0398749       288.385       288.379       0.10944       -1.5973       -6.7116             0       -5.0098       -7.5965             0       21.4147       6.04969             0       37.5087             0             0      0.207956   1.17742e-15     0.0958424        102767        103087        226150   2.15725e-15
    0.0398498       288.384       288.379      0.109577      -1.58725      -6.72053             0       -5.0032      -7.60409             0       21.4485       5.95223             0       37.6714             0             0      0.207984   1.17775e-15     0.0957215        102767        103086        226142   2.15785e-15
    0.0398248       288.384       288.378      0.109713       -1.5772      -6.72946             0       -4.9966      -7.61168             0       21.4822       5.85476             0        37.834             0             0      0.208012   1.17807e-15     0.0956006        102767        103086        226134   2.15845e-15
    0.0397998       288.384       288.378       0.10985      -1.56715      -6.73839             0      -4.98999      -7.61927             0        21.516        5.7573             0       37.9967             0             0       0.20804    1.1784e-15     0.0954797        102767        103086        226126   2.15905e-15
    0.0397748       288.384       288.378      0.109987       -1.5571      -6.74732             0      -4.98339      -7.62686             0       21.5498       5.65984             0       38.1593             0             0      0.208067   1.17873e-15     0.0953588        102767        103086        226117   2.15965e-15
    0.0397497       288.384       288.377      0.110124      -1.54705      -6.75625             0      -4.97679      -7.63445             0       21.5835       5.56237             0        38.322             0             0      0.208095   1.17906e-15     0.0952379        102767        103085        226109   2.16025e-15
    0.0397247       288.384       288.377      0.110261        -1.537      -6.76519             0      -4.97018      -7.64204             0       21.6173       5.46491             0       38.4846             0             0      0.208123   1.17938e-15      0.095117        102767        103085        226101   2.16085e-15
    0.0396997       288.384       288.377      0.110398      -1.52695      -6.77412             0      -4.96358      -7.64963             0       21.6511       5.36745             0       38.6473             0             0      0.208151   1.17971e-15     0.0949961        102767        103085        226093   2.16145e-15
    0.0396747       288.384       288.376      0.110534       -1.5169      -6.78305             0      -4.95698      -7.65722             0       21.6849       5.26998             0         38.81             0             0      0.208179   1.18004e-15     0.0948752        102767        103085        226085   2.16205e-15
    0.0396496       288.384       288.376      0.110671      -1.50684      -6.79198             0      -4.95037      -7.66481             0       21.7186       5.17252             0       38.9726             0             0      0.208206   1.18036e-15     0.0947543        102766        103085        226077   2.16265e-15
    0.0396246       288.384       288.376      0.110808      -1.49679      -6.80091             0      -4.94377       -7.6724             0       21.7524       5.07506             0       39.1353             0             0      0.208234   1.18069e-15     0.0946335        102766        103084        226069   2.16325e-15
    0.0395996       288.384       288.375      0.110945      -1.48674      -6.80984             0      -4.93717      -7.67999             0       21.7862       4.97759             0       39.2979             0             0      0.208262   1.18102e-15     0.0945126        102766        103084        226061   2.16385e-15
    0.0395746       288.384       288.375      0.111082      -1.47669      -6.81877             0      -4.93056      -7.68758             0       21.8199       4.88013             0       39.4606             0             0       0.20829   1.18135e-15     0.0943917        102766        103084        226053   2.16445e-15
    0.0395495       288.384       288.375      0.111219      -1.46664       -6.8277             0      -4.92396      -7.69517             0       21.8537       4.78266             0       39.6232             0             0      0.208318   1.18167e-15     0.0942708        102766        103084        226045   2.16504e-15
    0.0395245       288.384       288.374      0.111355      -1.45659      -6.83664             0      -4.91736      -7.70276             0       21.8875        4.6852             0       39.7859             0             0      0.208345     1.182e-15     0.0941499        102766        103084        226037   2.16564e-15
    0.0394995       288.384       288.374      0.111492      -1.44654      -6.84557             0      -4.91075      -7.71035             0       21.9213       4.58774             0       39.9485             0             0      0.208373   1.18233e-15      0.094029        102766        103083        226029   2.16624e-15
    0.0394745       288.384       288.374      0.111629      -1.43649       -6.8545             0      -4.90415      -7.71794             0        21.955       4.49027             0       40.1112             0             0      0.208401   1.18265e-15     0.0939081        102766        103083        226020   2.16684e-15
    0.0394494       288.384       288.373      0.111766      -1.42644      -6.86343             0      -4.89755      -7.72553             0       21.9888       4.39281             0       40.2739             0             0      0.208429   1.18298e-15     0.0937872        102766        103083        226012   2.16744e-15
    0.0394244       288.384       288.373      0.111903      -1.41639      -6.87236             0      -4.89094      -7.73312             0       22.0226       4.29535             0       40.4365             0             0      0.208457   1.18331e-15     0.0936663        102766        103083        226004   2.16804e-15
    0.0393994       288.384       288.373       0.11204      -1.40634      -6.88129             0      -4.88434      -7.74071             0       22.0563       4.19788             0       40.5992             0             0      0.208485   1.18364e-15     0.0935454        102766        103082        225996   2.16864e-15
    0.0393744       288.384       288.372      0.112176      -1.39629      -6.89022             0      -4.87774       -7.7483             0       22.0901       4.10042             0       40.7618             0             0      0.208512   1.18396e-15     0.0934246        102765        103082        225988   2.16924e-15
    0.0393493       288.384       288.372      0.112313      -1.38624      -6.89915             0      -4.87113      -7.75589             0       22.1239       4.00296             0       40.9245             0             0       0.20854   1.18429e-15     0.0933037        102765        103082        225980   2.16984e-15
    0.0393243       288.384       288.372       0.11245      -1.37619      -6.90808             0      -4.86453      -7.76348             0       22.1577       3.90549             0       41.0871             0             0      0.208568   1.18462e-15     0.0931828        102765        103082        225972   2.17044e-15
    0.0392993       288.384       288.371      0.112587      -1.36614      -6.91702             0      -4.85793      -7.77107             0       22.1914       3.80803             0       41.2498             0             0      0.208596   1.18494e-15     0.0930619        102765        103082        225964   2.17104e-15
    0.0392743       288.384       288.371      0.112724      -1.35609      -6.92595             0      -4.85132      -7.77866             0       22.2252       3.71057             0       41.4125             0             0      0.208624   1.18527e-15      0.092941        102765        103081        225956   2.17164e-15
    0.0392492       288.384        288.37      0.112861      -1.34604      -6.93488             0      -4.84472      -7.78625             0        22.259        3.6131             0       41.5751             0             0      0.208651    1.1856e-15     0.0928201        102765        103081        225948   2.17224e-15
    0.0392242       288.384        288.37      0.112997      -1.33599      -6.94381             0      -4.83812      -7.79384             0       22.2927       3.51564             0       41.7378             0             0      0.208679   1.18592e-15     0.0926992        102765        103081        225940   2.17284e-15
    0.0391992       288.384        288.37      0.113134      -1.32594      -6.95274             0      -4.83151      -7.80143             0       22.3265       3.41817             0       41.9004             0             0      0.208707   1.18625e-15     0.0925783        102765        103081        225932   2.17343e-15
    0.0391742       288.384       288.369      0.113271      -1.31588      -6.96167             0      -4.82491      -7.80902             0       22.3603       3.32071             0       42.0631             0             0      0.208735   1.18658e-15     0.0924574        102765        103080        225923   2.17403e-15
    0.0391491       288.384       288.369      0.113408      -1.30583       -6.9706             0      -4.81831      -7.81661             0       22.3941       3.22325             0       42.2257             0             0      0.208763   1.18691e-15     0.0923365        102765        103080        225915   2.17463e-15
    0.0391241       288.384       288.369      0.113545      -1.29578      -6.97953             0      -4.81171       -7.8242             0       22.4278       3.12578             0       42.3884             0             0       0.20879   1.18723e-15     0.0922156        102764        103080        225907   2.17523e-15
    0.0390991       288.384       288.368      0.113682      -1.28573      -6.98847             0       -4.8051      -7.83179             0       22.4616       3.02832             0        42.551             0             0      0.208818   1.18756e-15     0.0920948        102764        103080        225899   2.17583e-15
    0.0390741       288.384       288.368      0.113818      -1.27568       -6.9974             0       -4.7985      -7.83938             0       22.4954       2.93086             0       42.7137             0             0      0.208846   1.18789e-15     0.0919739        102764        103080        225891   2.17643e-15
     0.039049       288.384       288.368      0.113955      -1.26563      -7.00633             0       -4.7919      -7.84697             0       22.5291       2.83339             0       42.8764             0             0      0.208874   1.18821e-15      0.091853        102764        103079        225883   2.17703e-15
     0.039024       288.384       288.367      0.114092      -1.25558      -7.01526             0      -4.78529      -7.85456             0       22.5629       2.73593             0        43.039             0             0      0.208902   1.18854e-15     0.0917321        102764        103079        225875   2.17763e-15
     0.038999       288.384       288.367      0.114227      -1.24536      -7.02388             0      -4.77846      -7.86202             0       22.5962       2.63907             0       43.2021             0             0       0.20893   1.18888e-15     0.0916071        102764        103079        225867   2.17824e-15
     0.038974       288.383       288.367      0.114326      -1.23113      -7.02501             0      -4.76619      -7.86616             0       22.6172        2.5568             0       43.3765             0             0      0.208981   1.18941e-15      0.091385        102764        103079        225870   2.17922e-15
    0.0389489       288.383       288.366      0.114425       -1.2169      -7.02615             0      -4.75392       -7.8703             0       22.6382       2.47453             0       43.5509             0             0      0.209033   1.18994e-15     0.0911628        102764        103079        225873    2.1802e-15
    0.0389239       288.382       288.366      0.114524      -1.20267      -7.02729             0      -4.74165      -7.87445             0       22.6593       2.39226             0       43.7253             0             0      0.209084   1.19047e-15     0.0909406        102764        103078        225876   2.18117e-15
    0.0388989       288.382       288.366      0.114623      -1.18844      -7.02842             0      -4.72938      -7.87859             0       22.6803       2.30999             0       43.8997             0             0      0.209135   1.19101e-15     0.0907184        102764        103078        225878   2.18215e-15
    0.0388739       288.381       288.365      0.114722       -1.1742      -7.02956             0      -4.71711      -7.88273             0       22.7013       2.22772             0       44.0741             0             0      0.209186   1.19154e-15     0.0904963        102764        103078        225881   2.18312e-15
    0.0388488        288.38       288.365      0.114821      -1.15997      -7.03069             0      -4.70484      -7.88688             0       22.7224       2.14545             0       44.2484             0             0      0.209237   1.19207e-15     0.0902741        102763        103078        225884    2.1841e-15
    0.0388238        288.38       288.365       0.11492      -1.14574      -7.03183             0      -4.69257      -7.89102             0       22.7434       2.06318             0       44.4228             0             0      0.209288    1.1926e-15     0.0900519        102763        103078        225886   2.18507e-15
    0.0387988       288.379       288.364      0.115019      -1.13151      -7.03297             0       -4.6803      -7.89516             0       22.7644       1.98091             0       44.5972             0             0      0.209339   1.19314e-15     0.0898297        102763        103077        225889   2.18605e-15
    0.0387738       288.378       288.364      0.115118      -1.11728       -7.0341             0      -4.66803      -7.89931             0       22.7854       1.89864             0       44.7716             0             0       0.20939   1.19367e-15     0.0896075        102763        103077        225892   2.18702e-15
    0.0387487       288.378       288.363      0.115217      -1.10304      -7.03524             0      -4.65576      -7.90345             0       22.8065       1.81637             0        44.946             0             0      0.209441    1.1942e-15     0.0893854        102763        103077        225895     2.188e-15
    0.0387237       288.377       288.363      0.115316      -1.08881      -7.03637             0      -4.64349      -7.90759             0       22.8275        1.7341             0       45.1204             0             0      0.209492   1.19473e-15     0.0891632        102763        103077        225897   2.18898e-15
    0.0386987       288.376       288.363      0.115415      -1.07458      -7.03751             0      -4.63122      -7.91173             0       22.8485       1.65183             0       45.2948             0             0      0.209544   1.19527e-15      0.088941        102763        103077        225900   2.18995e-15
    0.0386737       288.376       288.362      0.115514      -1.06035      -7.03865             0      -4.61895      -7.91588             0       22.8696       1.56956             0       45.4691             0             0      0.209595    1.1958e-15     0.0887188        102763        103076        225903   2.19093e-15
    0.0386486       288.375       288.362      0.115613      -1.04612      -7.03978             0      -4.60668      -7.92002             0       22.8906       1.48729             0       45.6435             0             0      0.209646   1.19633e-15     0.0884967        102763        103076        225906    2.1919e-15
    0.0386236       288.374       288.362      0.115712      -1.03188      -7.04092             0      -4.59441      -7.92416             0       22.9116       1.40502             0       45.8179             0             0      0.209697   1.19686e-15     0.0882745        102763        103076        225908   2.19288e-15
    0.0385986       288.374       288.361      0.115811      -1.01765      -7.04205             0      -4.58214      -7.92831             0       22.9327       1.32275             0       45.9923             0             0      0.209748    1.1974e-15     0.0880523        102762        103076        225911   2.19385e-15
    0.0385736       288.373       288.361       0.11591      -1.00342      -7.04319             0      -4.56987      -7.93245             0       22.9537       1.24048             0       46.1667             0             0      0.209799   1.19793e-15     0.0878301        102762        103075        225914   2.19483e-15
    0.0385485       288.373       288.361      0.116009     -0.989189      -7.04433             0       -4.5576      -7.93659             0       22.9747        1.1582             0       46.3411             0             0       0.20985   1.19846e-15      0.087608        102762        103075        225917   2.19581e-15
    0.0385235       288.372        288.36      0.116108     -0.974957      -7.04546             0      -4.54533      -7.94074             0       22.9957       1.07593             0       46.5154             0             0      0.209901   1.19899e-15     0.0873858        102762        103075        225919   2.19678e-15
    0.0384985       288.371        288.36      0.116207     -0.960725       -7.0466             0      -4.53306      -7.94488             0       23.0168      0.993664             0       46.6898             0             0      0.209952   1.19953e-15     0.0871636        102762        103075        225922   2.19776e-15
    0.0384735       288.371       288.359      0.116306     -0.946493      -7.04773             0      -4.52079      -7.94902             0       23.0378      0.911393             0       46.8642             0             0      0.210003   1.20006e-15     0.0869414        102762        103075        225925   2.19873e-15
    0.0384484        288.37       288.359      0.116405     -0.932262      -7.04887             0      -4.50852      -7.95317             0       23.0588      0.829123             0       47.0386             0             0      0.210055   1.20059e-15     0.0867192        102762        103074        225928   2.19971e-15
    0.0384234       288.369       288.359      0.116504      -0.91803      -7.05001             0      -4.49625      -7.95731             0       23.0799      0.746853             0        47.213             0             0      0.210106   1.20112e-15     0.0864971        102762        103074        225930   2.20068e-15
    0.0383984       288.369       288.358      0.116603     -0.903798      -7.05114             0      -4.48398      -7.96145             0       23.1009      0.664582             0       47.3874             0             0      0.210157   1.20166e-15     0.0862749        102762        103074        225933   2.20166e-15
    0.0383734       288.368       288.358      0.116702     -0.889566      -7.05228             0      -4.47171       -7.9656             0       23.1219      0.582312             0       47.5618             0             0      0.210208   1.20219e-15     0.0860527        102762        103074        225936   2.20264e-15
    0.0383483       288.367       288.358      0.116801     -0.875334      -7.05341             0      -4.45944      -7.96974             0        23.143      0.500041             0       47.7361             0             0      0.210259   1.20272e-15     0.0858305        102762        103074        225939   2.20361e-15
    0.0383233       288.367       288.357        0.1169     -0.861102      -7.05455             0      -4.44717      -7.97388             0        23.164      0.417771             0       47.9105             0             0       0.21031   1.20325e-15     0.0856084        102761        103073        225941   2.20459e-15
    0.0382983       288.366       288.357      0.116999      -0.84687      -7.05568             0       -4.4349      -7.97803             0        23.185        0.3355             0       48.0849             0             0      0.210361   1.20379e-15     0.0853862        102761        103073        225944   2.20556e-15
    0.0382733       288.366       288.356      0.117098     -0.832638      -7.05682             0      -4.42263      -7.98217             0       23.2061       0.25323             0       48.2593             0             0      0.210412   1.20432e-15      0.085164        102761        103073        225947   2.20654e-15
    0.0382482       288.365       288.356      0.117197     -0.818406      -7.05796             0      -4.41036      -7.98631             0       23.2271      0.170959             0       48.4337             0             0      0.210463   1.20485e-15     0.0849418        102761        103073        225949   2.20751e-15
    0.0382232       288.364       288.356      0.117296     -0.804174      -7.05909             0      -4.39809      -7.99045             0       23.2481     0.0886888             0       48.6081             0             0      0.210514   1.20538e-15     0.0847196        102761        103073        225952   2.20849e-15
    0.0381982       288.364       288.355      0.117395     -0.789942      -7.06023             0      -4.38582       -7.9946             0       23.2691    0.00641833             0       48.7824             0             0      0.210566   1.20592e-15     0.0844975        102761        103072        225955   2.20947e-15
    0.0381732       288.363       288.355      0.117494     -0.775711      -7.06136             0      -4.37355      -7.99874             0       23.2902    -0.0758521             0       48.9568             0             0      0.210617   1.20645e-15     0.0842753        102761        103072        225958   2.21044e-15
    0.0381481       288.362       288.355      0.117593     -0.761479       -7.0625             0      -4.36128      -8.00288             0       23.3112     -0.158123             0       49.1312             0             0      0.210668   1.20698e-15     0.0840531        102761        103072        225960   2.21142e-15
    0.0381231       288.362       288.354      0.117692     -0.747247      -7.06364             0      -4.34901      -8.00703             0       23.3322     -0.240393             0       49.3056             0             0      0.210719   1.20751e-15     0.0838309        102761        103072        225963   2.21239e-15
    0.0380981       288.361       288.354      0.117791     -0.733015      -7.06477             0      -4.33674      -8.01117             0       23.3533     -0.322664             0         49.48             0             0       0.21077   1.20805e-15     0.0836088        102761        103072        225966   2.21337e-15
    0.0380731        288.36       288.354       0.11789     -0.718783      -7.06591             0      -4.32447      -8.01531             0       23.3743     -0.404934             0       49.6544             0             0      0.210821   1.20858e-15     0.0833866        102761        103071        225969   2.21434e-15
     0.038048        288.36       288.353      0.117989     -0.704551      -7.06704             0       -4.3122      -8.01946             0       23.3953     -0.487204             0       49.8287             0             0      0.210872   1.20911e-15     0.0831644        102760        103071        225971   2.21532e-15
     0.038023       288.359       288.353      0.118088     -0.690319      -7.06818             0      -4.29993       -8.0236             0       23.4164     -0.569475             0       50.0031             0             0      0.210923   1.20965e-15     0.0829422        102760        103071        225974   2.21629e-15
     0.037998       288.358       288.352      0.118183     -0.675883      -7.06865             0      -4.28719      -8.02741             0       23.4353     -0.650067             0       50.1778             0             0      0.210974   1.21017e-15     0.0827222        102760        103071        225978   2.21725e-15
     0.037973       288.357       288.352      0.118233       -0.6591      -7.06152             0      -4.26902      -8.02741             0       23.4308     -0.711362             0       50.3561             0             0      0.211019   1.21059e-15     0.0825272        102760        103071        225990   2.21803e-15
    0.0379479       288.356       288.352      0.118283     -0.642317      -7.05438             0      -4.25084      -8.02741             0       23.4263     -0.772657             0       50.5345             0             0      0.211064   1.21102e-15     0.0823322        102760        103070        226003   2.21881e-15
    0.0379229       288.354       288.352      0.118332     -0.625534      -7.04724             0      -4.23267      -8.02741             0       23.4218     -0.833952             0       50.7128             0             0      0.211108   1.21144e-15     0.0821372        102760        103070        226015   2.21959e-15
    0.0378979       288.353       288.351      0.118382      -0.60875       -7.0401             0      -4.21449      -8.02741             0       23.4172     -0.895247             0       50.8911             0             0      0.211153   1.21187e-15     0.0819422        102760        103070        226027   2.22037e-15
    0.0378729       288.351       288.351      0.118432     -0.591967      -7.03296             0      -4.19632       -8.0274             0       23.4127     -0.956542             0       51.0694             0             0      0.211198   1.21229e-15     0.0817472        102760        103070        226040   2.22115e-15
    0.0378478        288.35       288.351      0.118481     -0.575184      -7.02582             0      -4.17814       -8.0274             0       23.4082      -1.01784             0       51.2477             0             0      0.211243   1.21272e-15     0.0815522        102760        103070        226052   2.22192e-15
    0.0378228       288.348        288.35      0.118531     -0.558401      -7.01868             0      -4.15997       -8.0274             0       23.4036      -1.07913             0        51.426             0             0      0.211288   1.21314e-15     0.0813572        102760        103070        226065    2.2227e-15
    0.0377978       288.347        288.35       0.11858     -0.541617      -7.01154             0      -4.14179       -8.0274             0       23.3991      -1.14043             0       51.6044             0             0      0.211333   1.21357e-15     0.0811622        102760        103070        226077   2.22348e-15
    0.0377728       288.346        288.35       0.11863     -0.524834       -7.0044             0      -4.12362       -8.0274             0       23.3946      -1.20172             0       51.7827             0             0      0.211378   1.21399e-15     0.0809672        102760        103069        226090   2.22426e-15
    0.0377477       288.344        288.35       0.11868     -0.508051      -6.99726             0      -4.10544       -8.0274             0         23.39      -1.26302             0        51.961             0             0      0.211422   1.21442e-15     0.0807722        102760        103069        226102   2.22504e-15
    0.0377227       288.343       288.349      0.118729     -0.491268      -6.99012             0      -4.08727      -8.02739             0       23.3855      -1.32431             0       52.1393             0             0      0.211467   1.21484e-15     0.0805772        102760        103069        226114   2.22582e-15