#           y             T         TMean   TPrime2Mean           U_x           U_y           U_z       UMean_x       UMean_y       UMean_z UPrime2Mea... UPrime2Mea... UPrime2Mea... UPrime2Mea... UPrime2Mea... UPrime2Mea...            O2           H2O          C3H8             p         pMean   pPrime2Mean           CO2
         0.03       288.226       288.548      0.300673        9.7865       -1.6035             0       3.64221      0.885429             0       18.6413      -1.64229             0       54.1397             0             0      0.170677   6.76079e-16      0.257925        102583        103135        265736    1.2387e-15
    0.0301702       288.227       288.546      0.297972       9.74772       -1.5469             0       3.60995       0.92347             0       18.6915      -1.61386             0        54.054             0             0       0.17114   6.82849e-16      0.255913        102584        103136        265213   1.25111e-15
    0.0303403       288.228       288.544      0.295271       9.70894       -1.4903             0       3.57768      0.961511             0       18.7418      -1.58542             0       53.9683             0             0      0.171603   6.89619e-16      0.253901        102585        103136        264691   1.26351e-15
    0.0305105       288.229       288.542       0.29257       9.67016      -1.43371             0       3.54542      0.999551             0        18.792      -1.55699             0       53.8827             0             0      0.172066   6.96389e-16      0.251889        102586        103136        264168   1.27592e-15
    0.0306807        288.23        288.54      0.289868       9.63138      -1.37711             0       3.51316       1.03759             0       18.8423      -1.52855             0        53.797             0             0      0.172528    7.0316e-16      0.249877        102587        103137        263646   1.28832e-15
    0.0308509       288.231       288.538      0.287167        9.5926      -1.32051             0       3.48089       1.07563             0       18.8925      -1.50012             0       53.7113             0             0      0.172991    7.0993e-16      0.247864        102588        103137        263123   1.30072e-15
     0.031021       288.232       288.537      0.284585        9.5515      -1.26317             0       3.45085       1.11408             0       18.9648      -1.46684             0       53.6122             0             0      0.173458   7.17563e-16      0.245834        102589        103137        262593   1.31471e-15
    0.0311912       288.232       288.534       0.28285       9.49386      -1.20058             0       3.43659       1.15544             0       19.1933      -1.39917             0       53.4175             0             0      0.173954   7.31323e-16      0.243677        102589        103138        262011   1.33992e-15
    0.0313614       288.233       288.532      0.281114       9.43623      -1.13799             0       3.42233       1.19679             0       19.4217      -1.33151             0       53.2229             0             0       0.17445   7.45084e-16       0.24152        102590        103138        261428   1.36513e-15
    0.0315315       288.234       288.529      0.279379       9.37859       -1.0754             0       3.40807       1.23815             0       19.6501      -1.26384             0       53.0282             0             0      0.174947   7.58844e-16      0.239362        102591        103139        260845   1.39034e-15
    0.0317017       288.235       288.527      0.277643       9.32096      -1.01281             0       3.39381       1.27951             0       19.8786      -1.19617             0       52.8335             0             0      0.175443   7.72604e-16      0.237205        102592        103139        260263   1.41555e-15
    0.0318719       288.236       288.525      0.275907       9.26332     -0.950215             0       3.37955       1.32086             0        20.107      -1.12851             0       52.6389             0             0      0.175939   7.86364e-16      0.235047        102593        103139        259680   1.44077e-15
     0.032042       288.236       288.522      0.274464       9.20208     -0.887248             0       3.36876       1.36236             0       20.3862      -1.04623             0       52.4215             0             0      0.176443   8.02208e-16      0.232856        102594        103140        259093    1.4698e-15
    0.0322122       288.236        288.52      0.273912       9.12982     -0.823141             0       3.36855       1.40429             0         20.82     -0.919447             0       52.1348             0             0      0.176971   8.24402e-16      0.230562        102594        103141        258491   1.51046e-15
    0.0323824       288.235       288.518       0.27336       9.05757     -0.759033             0       3.36835       1.44622             0       21.2537      -0.79266             0       51.8481             0             0      0.177499   8.46597e-16      0.228267        102595        103141        257889   1.55112e-15
    0.0325526       288.235       288.515      0.272808       8.98532     -0.694925             0       3.36814       1.48815             0       21.6875     -0.665873             0       51.5614             0             0      0.178026   8.68791e-16      0.225973        102596        103142        257286   1.59179e-15
    0.0327227       288.234       288.513      0.272256       8.91306     -0.630817             0       3.36794       1.53008             0       22.1213     -0.539085             0       51.2748             0             0      0.178554   8.90985e-16      0.223679        102597        103142        256684   1.63245e-15
    0.0328929       288.234        288.51      0.271703       8.84081     -0.566709             0       3.36773       1.57201             0        22.555     -0.412298             0       50.9881             0             0      0.179082   9.13179e-16      0.221384        102597        103143        256082   1.67311e-15
    0.0330631       288.233       288.508       0.27151       8.76546     -0.504101             0       3.37035       1.61342             0       23.0949     -0.264759             0       50.6745             0             0      0.179588   9.36783e-16      0.219184        102598        103143        255482   1.71636e-15
    0.0332332       288.232       288.506      0.271927       8.68485      -0.44404             0       3.37777       1.65395             0        23.815    -0.0819773             0       50.3154             0             0      0.180057    9.6278e-16      0.217145        102598        103144        254885   1.76399e-15
    0.0334034        288.23       288.503      0.272344       8.60425      -0.38398             0       3.38519       1.69448             0       24.5351      0.100805             0       49.9562             0             0      0.180526   9.88776e-16      0.215105        102599        103145        254289   1.81162e-15
    0.0335736       288.229       288.501       0.27276       8.52364     -0.323919             0       3.39261       1.73501             0       25.2552      0.283587             0        49.597             0             0      0.180995   1.01477e-15      0.213066        102600        103146        253692   1.85925e-15
    0.0337437       288.228       288.498      0.273177       8.44304     -0.263859             0       3.40003       1.77555             0       25.9753      0.466369             0       49.2378             0             0      0.181464   1.04077e-15      0.211027        102600        103146        253095   1.90689e-15
    0.0339139       288.226       288.496      0.273593       8.36243     -0.203798             0       3.40745       1.81608             0       26.6954      0.649151             0       48.8786             0             0      0.181933   1.06677e-15      0.208987        102601        103147        252499   1.95452e-15
    0.0340841       288.224       288.494      0.274322       8.28044     -0.147197             0       3.41738       1.85484             0       27.5553      0.854174             0       48.4863             0             0      0.182327   1.09149e-15      0.207276        102601        103148        251912   1.99982e-15
    0.0342543       288.222       288.492      0.275369       8.19704    -0.0941387             0       3.42988       1.89179             0       28.5584       1.08197             0         48.06             0             0      0.182643   1.11492e-15        0.2059        102602        103149        251335   2.04274e-15
    0.0344244        288.22       288.489      0.276417       8.11364      -0.04108             0       3.44238       1.92875             0       29.5614       1.30976             0       47.6337             0             0      0.182959   1.13834e-15      0.204525        102602        103150        250758   2.08565e-15
    0.0345946       288.218       288.487      0.277465       8.03024     0.0119786             0       3.45489        1.9657             0       30.5644       1.53755             0       47.2075             0             0      0.183276   1.16177e-15       0.20315        102602        103150        250181   2.12857e-15
    0.0347648       288.216       288.485      0.278512       7.94684     0.0650372             0       3.46739       2.00266             0       31.5675       1.76534             0       46.7812             0             0      0.183592   1.18519e-15      0.201774        102603        103151        249604   2.17149e-15
    0.0349349       288.213       288.483       0.27956       7.86344      0.118096             0       3.47989       2.03961             0       32.5705       1.99313             0       46.3549             0             0      0.183908   1.20861e-15      0.200399        102603        103152        249027   2.21441e-15
    0.0351051       288.211       288.482      0.280529       7.78265      0.164808             0       3.49598        2.0734             0       33.6657       2.22431             0       45.8897             0             0      0.184115     1.227e-15      0.199501        102604        103153        248465   2.24809e-15
    0.0352753       288.208        288.48       0.28145       7.70348      0.207591             0       3.51428       2.10523             0       34.8179       2.45758             0       45.4005             0             0      0.184253   1.24226e-15      0.198898        102604        103154        247913   2.27605e-15
    0.0354454       288.205       288.479      0.282371        7.6243      0.250375             0       3.53258       2.13707             0       35.9701       2.69085             0       44.9113             0             0      0.184392   1.25752e-15      0.198295        102604        103155        247361   2.30401e-15
    0.0356156       288.203       288.478      0.283291       7.54513      0.293158             0       3.55088        2.1689             0       37.1223       2.92412             0        44.422             0             0      0.184531   1.27278e-15      0.197692        102605        103156        246809   2.33197e-15
    0.0357858         288.2       288.476      0.284212       7.46596      0.335941             0       3.56918       2.20073             0       38.2745       3.15739             0       43.9328             0             0      0.184669   1.28804e-15       0.19709        102605        103157        246257   2.35994e-15
     0.035956       288.197       288.475      0.285133       7.38679      0.378724             0       3.58748       2.23256             0       39.4267       3.39065             0       43.4435             0             0      0.184808    1.3033e-15      0.196487        102605        103158        245705    2.3879e-15
    0.0361261       288.194       288.475      0.285214       7.31479      0.412755             0        3.6099        2.2598             0        40.583       3.58579             0       42.9218             0             0      0.184868   1.31351e-15      0.196225        102605        103159        245193   2.40659e-15
    0.0362963       288.191       288.474      0.285001       7.24529      0.443729             0       3.63377       2.28543             0       41.7407       3.76762             0       42.3887             0             0      0.184901   1.32194e-15      0.196081        102606        103160        244696   2.42205e-15
    0.0364665       288.188       288.474      0.284788       7.17579      0.474702             0       3.65763       2.31105             0       42.8983       3.94944             0       41.8556             0             0      0.184934   1.33038e-15      0.195938        102606        103161        244199    2.4375e-15
    0.0366366       288.185       288.473      0.284576       7.10629      0.505676             0        3.6815       2.33668             0        44.056       4.13126             0       41.3225             0             0      0.184967   1.33882e-15      0.195794        102606        103162        243701   2.45296e-15
    0.0368068       288.181       288.473      0.284363       7.03679       0.53665             0       3.70536       2.36231             0       45.2136       4.31309             0       40.7894             0             0         0.185   1.34725e-15      0.195651        102606        103163        243204   2.46842e-15
     0.036977       288.178       288.473      0.284151       6.96729      0.567624             0       3.72923       2.38794             0       46.3713       4.49491             0       40.2563             0             0      0.185033   1.35569e-15      0.195508        102607        103165        242707   2.48387e-15
    0.0371471       288.175       288.473      0.282419       6.90967      0.589711             0       3.75776        2.4062             0       47.4219       4.63257             0       39.6957             0             0      0.185035   1.36226e-15        0.1955        102607        103166        242268   2.49592e-15
    0.0373173       288.172       288.473      0.280449       6.85391      0.610408             0       3.78701       2.42332             0       48.4557       4.76331             0       39.1308             0             0      0.185032   1.36854e-15      0.195513        102607        103167        241839   2.50742e-15
    0.0374875        288.17       288.473       0.27848       6.79814      0.631105             0       3.81627       2.44043             0       49.4895       4.89406             0       38.5659             0             0      0.185029   1.37482e-15      0.195527        102607        103168        241410   2.51893e-15
    0.0376577       288.167       288.474       0.27651       6.74238      0.651802             0       3.84553       2.45754             0       50.5233       5.02481             0        38.001             0             0      0.185026    1.3811e-15       0.19554        102607        103169        240980   2.53044e-15
    0.0378278       288.164       288.474       0.27454       6.68662        0.6725             0       3.87479       2.47465             0       51.5571       5.15555             0       37.4361             0             0      0.185023   1.38738e-15      0.195554        102608        103171        240551   2.54195e-15
     0.037998       288.161       288.474      0.272571       6.63085      0.693197             0       3.90404       2.49176             0       52.5909        5.2863             0       36.8712             0             0       0.18502   1.39367e-15      0.195567        102608        103172        240122   2.55345e-15
    0.0381682       288.159       288.474      0.268866       6.59163      0.705837             0       3.93929       2.49796             0       53.3913       5.43118             0       36.2721             0             0      0.184997   1.39834e-15      0.195667        102608        103173        239775   2.56202e-15
    0.0383383       288.156       288.475      0.265141        6.5526      0.718382             0        3.9746       2.50404             0       54.1889       5.57624             0       35.6726             0             0      0.184973   1.40299e-15      0.195769        102608        103174        239429   2.57054e-15
    0.0385085       288.154       288.475      0.261415       6.51358      0.730927             0       4.00991       2.51011             0       54.9865       5.72129             0       35.0731             0             0       0.18495   1.40765e-15       0.19587        102608        103176        239084   2.57907e-15
    0.0386787       288.152       288.475       0.25769       6.47455      0.743472             0       4.04522       2.51618             0       55.7841       5.86635             0       34.4736             0             0      0.184927    1.4123e-15      0.195971        102608        103177        238738    2.5876e-15
    0.0388488       288.149       288.475      0.253964       6.43552      0.756017             0       4.08053       2.52225             0       56.5816        6.0114             0       33.8741             0             0      0.184903   1.41696e-15      0.196073        102608        103178        238392   2.59613e-15
     0.039019       288.147       288.476      0.250132       6.39866      0.767819             0       4.11631       2.52704             0         57.35       6.16297             0       33.2699             0             0      0.184879   1.42139e-15       0.19618        102609        103180        238056   2.60425e-15
    0.0391892       288.144       288.476      0.245456       6.37899      0.773714             0       4.15581       2.52161             0       57.8865       6.36638             0       32.6286             0             0      0.184842   1.42407e-15      0.196338        102609        103181        237799   2.60916e-15
    0.0393594       288.141       288.475      0.240779       6.35933       0.77961             0        4.1953       2.51619             0       58.4229       6.56978             0       31.9872             0             0      0.184806   1.42675e-15      0.196495        102609        103182        237542   2.61406e-15
    0.0395295       288.138       288.475      0.236102       6.33966      0.785505             0       4.23479       2.51076             0       58.9594       6.77318             0       31.3458             0             0       0.18477   1.42942e-15      0.196653        102609        103183        237285   2.61897e-15
    0.0396997       288.135       288.475      0.231425       6.31999        0.7914             0       4.27429       2.50533             0       59.4959       6.97658             0       30.7044             0             0      0.184734    1.4321e-15      0.196811        102609        103185        237028   2.62388e-15
    0.0398699       288.132       288.475      0.226749       6.30032      0.797296             0       4.31378        2.4999             0       60.0323       7.17998             0        30.063             0             0      0.184697   1.43478e-15      0.196968        102609        103186        236771   2.62879e-15
      0.04004       288.129       288.475      0.222183        6.2856      0.801785             0       4.35357       2.49244             0       60.5177       7.38951             0       29.4143             0             0      0.184661   1.43675e-15      0.197127        102609        103187        236536    2.6324e-15
    0.0402102       288.127       288.474      0.217978       6.28693      0.801707             0       4.39434       2.47836             0       60.8373       7.61895             0       28.7414             0             0      0.184623   1.43643e-15      0.197291        102609        103189        236371   2.63181e-15
    0.0403804       288.125       288.474      0.213772       6.28826      0.801629             0        4.4351       2.46428             0       61.1568        7.8484             0       28.0686             0             0      0.184585   1.43611e-15      0.197455        102610        103190        236205   2.63121e-15
    0.0405506       288.122       288.473      0.209567        6.2896      0.801551             0       4.47587        2.4502             0       61.4764       8.07785             0       27.3958             0             0      0.184548   1.43578e-15      0.197618        102610        103191        236040   2.63062e-15
    0.0407207        288.12       288.472      0.205362       6.29093      0.801473             0       4.51663       2.43613             0        61.796        8.3073             0       26.7229             0             0       0.18451   1.43546e-15      0.197782        102610        103193        235875   2.63003e-15
    0.0408909       288.118       288.472      0.201157       6.29226      0.801395             0        4.5574       2.42205             0       62.1155       8.53675             0       26.0501             0             0      0.184472   1.43513e-15      0.197946        102610        103194        235710   2.62943e-15
    0.0410611       288.116       288.471      0.197315       6.30106      0.799232             0       4.59775       2.40623             0       62.3835       8.74655             0       25.3764             0             0      0.184437    1.4337e-15      0.198098        102610        103195        235576   2.62681e-15
    0.0412312       288.115        288.47      0.194121       6.32319      0.793344             0       4.63735       2.38732             0       62.5591       8.92123             0       24.7012             0             0      0.184407   1.43029e-15       0.19823        102610        103197        235500   2.62056e-15
    0.0414014       288.114        288.47      0.190928       6.34532      0.787455             0       4.67695        2.3684             0       62.7348       9.09591             0        24.026             0             0      0.184377   1.42688e-15      0.198361        102610        103198        235424    2.6143e-15
    0.0415716       288.113       288.469      0.187734       6.36746      0.781567             0       4.71655       2.34949             0       62.9105        9.2706             0       23.3508             0             0      0.184347   1.42346e-15      0.198493        102610        103200        235347   2.60805e-15
    0.0417417       288.112       288.468      0.184541       6.38959      0.775678             0       4.75615       2.33057             0       63.0861       9.44528             0       22.6756             0             0      0.184316   1.42005e-15      0.198625        102610        103201        235271   2.60179e-15
    0.0419119       288.111       288.467      0.181347       6.41173      0.769789             0       4.79576       2.31166             0       63.2618       9.61996             0       22.0004             0             0      0.184286   1.41664e-15      0.198756        102610        103202        235194   2.59554e-15
    0.0420821       288.111       288.466      0.178782       6.44247      0.760804             0       4.83224       2.29138             0       63.4034       9.73515             0       21.3371             0             0      0.184264   1.41188e-15      0.198852        102610        103204        235152   2.58683e-15
    0.0422523        288.11       288.464       0.17689       6.48245      0.748495             0       4.86537       2.26963             0       63.5085       9.78647             0       20.6865             0             0      0.184251   1.40568e-15      0.198908        102610        103205        235146   2.57548e-15
    0.0424224        288.11       288.463      0.174999       6.52243      0.736185             0       4.89851       2.24789             0       63.6135        9.8378             0        20.036             0             0      0.184238   1.39949e-15      0.198964        102610        103206        235139   2.56413e-15
    0.0425926        288.11       288.461      0.173107       6.56241      0.723876             0       4.93164       2.22614             0       63.7185       9.88913             0       19.3855             0             0      0.184225   1.39329e-15      0.199021        102610        103208        235133   2.55277e-15
    0.0427628        288.11        288.46      0.171215       6.60239      0.711567             0       4.96477        2.2044             0       63.8236       9.94045             0       18.7349             0             0      0.184212    1.3871e-15      0.199077        102610        103209        235127   2.54142e-15
    0.0429329       288.109       288.458      0.169324       6.64237      0.699257             0       4.99791       2.18265             0       63.9286       9.99178             0       18.0844             0             0      0.184199    1.3809e-15      0.199133        102610        103210        235121   2.53007e-15
    0.0431031        288.11       288.456      0.168379       6.69183      0.682349             0       5.02337       2.15884             0       63.9565       9.96213             0       17.4475             0             0      0.184203   1.37351e-15      0.199119        102610        103212        235156   2.51652e-15
    0.0432733       288.112       288.453       0.16805       6.74746       0.66245             0       5.04384       2.13367             0       63.9342        9.8798             0       16.8194             0             0      0.184217   1.36533e-15      0.199058        102610        103213        235218   2.50153e-15
    0.0434434       288.113       288.451      0.167721       6.80309      0.642551             0       5.06431        2.1085             0       63.9119       9.79747             0       16.1914             0             0      0.184231   1.35715e-15      0.198997        102610        103214        235280   2.48655e-15
    0.0436136       288.114       288.448      0.167393       6.85873      0.622651             0       5.08479       2.08333             0       63.8897       9.71514             0       15.5633             0             0      0.184245   1.34897e-15      0.198936        102610        103215        235341   2.47156e-15
    0.0437838       288.116       288.446      0.167064       6.91436      0.602752             0       5.10526       2.05817             0       63.8674       9.63282             0       14.9353             0             0      0.184259   1.34079e-15      0.198875        102610        103217        235403   2.45657e-15
     0.043954       288.117       288.443      0.166735       6.96999      0.582853             0       5.12573         2.033             0       63.8451       9.55049             0       14.3073             0             0      0.184273   1.33261e-15      0.198814        102610        103218        235465   2.44159e-15
    0.0441241        288.12        288.44       0.16723       7.04139        0.5589             0       5.13654       2.00206             0       63.6137       9.39329             0       13.6958             0             0      0.184312   1.32536e-15      0.198645        102610        103219        235579    2.4283e-15
    0.0442943       288.123       288.436       0.16803       7.11863      0.533444             0       5.14377       1.96898             0       63.3048       9.20832             0       13.0906             0             0       0.18436   1.31845e-15      0.198435        102609        103220        235713   2.41565e-15
    0.0444645       288.126       288.432      0.168831       7.19587      0.507987             0         5.151       1.93591             0       62.9959       9.02334             0       12.4853             0             0      0.184408   1.31155e-15      0.198226        102609        103222        235847     2.403e-15
    0.0446346       288.129       288.429      0.169632       7.27312      0.482531             0       5.15823       1.90283             0       62.6869       8.83837             0       11.8801             0             0      0.184456   1.30464e-15      0.198016        102609        103223        235981   2.39035e-15
    0.0448048       288.132       288.425      0.170432       7.35036      0.457075             0       5.16545       1.86975             0        62.378        8.6534             0       11.2748             0             0      0.184504   1.29774e-15      0.197807        102609        103224        236116    2.3777e-15
     0.044975       288.135       288.421      0.171233        7.4276      0.431618             0       5.17268       1.83668             0        62.069       8.46843             0       10.6695             0             0      0.184553   1.29083e-15      0.197597        102609        103225        236250   2.36505e-15
    0.0451451       288.138       288.416      0.172416       7.53376      0.406381             0       5.16977       1.79276             0       61.4665       8.21223             0       10.1027             0             0      0.184629   1.28677e-15      0.197264        102609        103226        236426    2.3576e-15
    0.0453153       288.141       288.411      0.173666       7.64489      0.381181             0        5.1651       1.74698             0       60.8134       7.94375             0       9.54246             0             0      0.184711    1.2832e-15       0.19691        102608        103227        236609   2.35105e-15
    0.0454855       288.145       288.407      0.174915       7.75603      0.355981             0       5.16044       1.70119             0       60.1603       7.67527             0       8.98224             0             0      0.184792   1.27962e-15      0.196556        102608        103229        236793    2.3445e-15