#           y             T         TMean   TPrime2Mean           U_x           U_y           U_z       UMean_x       UMean_y       UMean_z UPrime2Mea... UPrime2Mea... UPrime2Mea... UPrime2Mea... UPrime2Mea... UPrime2Mea...            O2           H2O          C3H8             p         pMean   pPrime2Mean           CO2
         0.02       312.321       288.477        13.995       14.7404      -1.97314             0       21.7204     -0.934802             0       40.8961      -2.44246             0       19.9564             0             0      0.165581   6.88874e-10      0.280084        102446        103127        176140   1.26214e-09
    0.0201677       309.611       288.431       11.9641       15.2885      -2.01287             0       21.7328     -0.916983             0       40.7056      -1.65911             0       20.2995             0             0      0.169277   5.98025e-10      0.264014        102450        103126        176655   1.09569e-09
    0.0203353       306.901       288.385       9.93322       15.8365       -2.0526             0       21.7451     -0.899164             0       40.5151      -0.87577             0       20.6425             0             0      0.172973   5.07177e-10      0.247944        102454        103125        177169   9.29242e-10
     0.020503       304.191       288.339       7.90233       16.3845      -2.09233             0       21.7575     -0.881346             0       40.3246    -0.0924258             0       20.9856             0             0      0.176669   4.16328e-10      0.231875        102457        103125        177684   7.62791e-10
    0.0206707       301.481       288.293       5.87143       16.9325      -2.13206             0       21.7699     -0.863527             0        40.134      0.690918             0       21.3287             0             0      0.180365    3.2548e-10      0.215805        102461        103124        178198   5.96339e-10
    0.0208383        298.77       288.247       3.84053       17.4805      -2.17179             0       21.7822     -0.845709             0       39.9435       1.47426             0       21.6717             0             0      0.184061   2.34631e-10      0.199735        102465        103124        178713   4.29888e-10
     0.021006       296.127       288.202       1.87251       18.0235      -2.20753             0       21.7888     -0.827464             0       39.7588       2.26156             0       22.0165             0             0      0.187717   1.46435e-10       0.18384        102469        103123        179228   2.68297e-10
    0.0211737       295.286       288.189       1.59689       18.4311      -2.13579             0       21.6412      -0.79774             0       39.7304       3.15528             0       22.4074             0             0      0.190294   1.29638e-10      0.172637        102474        103123        179760   2.37521e-10
    0.0213413       294.446       288.175       1.32128       18.8387      -2.06405             0       21.4936     -0.768016             0       39.7021         4.049             0       22.7983             0             0       0.19287   1.12841e-10      0.161433        102480        103122        180293   2.06745e-10
     0.021509       293.605       288.162       1.04567       19.2463      -1.99231             0        21.346     -0.738293             0       39.6737       4.94272             0       23.1891             0             0      0.195447   9.60433e-11       0.15023        102486        103122        180825   1.75969e-10
    0.0216767       292.765       288.148      0.770051       19.6539      -1.92057             0       21.1984     -0.708569             0       39.6454       5.83644             0         23.58             0             0      0.198024    7.9246e-11      0.139027        102492        103121        181358   1.45193e-10
    0.0218443       291.924       288.135      0.494437       20.0615      -1.84883             0       21.0508     -0.678845             0        39.617       6.73015             0       23.9709             0             0      0.200601   6.24486e-11      0.127823        102498        103121        181890   1.14418e-10
     0.022012       291.122       288.122      0.236901       20.4461      -1.77133             0       20.8924     -0.650327             0        39.582       7.61655             0       24.3669             0             0      0.203139   4.64561e-11      0.116788        102504        103120        182427   8.51162e-11
    0.0221797       290.813       288.124      0.213634       20.5328      -1.61914             0       20.5939     -0.637422             0       39.4617         8.408             0       24.8294             0             0      0.205178   4.08924e-11      0.107923        102511        103120        183022   7.49226e-11
    0.0223473       290.504       288.126      0.190368       20.6195      -1.46696             0       20.2954     -0.624517             0       39.3413       9.19945             0       25.2919             0             0      0.207217   3.53288e-11     0.0990584        102519        103119        183618    6.4729e-11
     0.022515       290.196       288.129      0.167101       20.7061      -1.31478             0       19.9968     -0.611613             0       39.2209        9.9909             0       25.7543             0             0      0.209255   2.97652e-11     0.0901939        102526        103118        184213   5.45353e-11
    0.0226827       289.887       288.131      0.143835       20.7928      -1.16259             0       19.6983     -0.598708             0       39.1005       10.7823             0       26.2168             0             0      0.211294   2.42015e-11     0.0813294        102533        103118        184809   4.43417e-11
    0.0228504       289.579       288.133      0.120568       20.8794      -1.01041             0       19.3998     -0.585803             0       38.9801       11.5738             0       26.6793             0             0      0.213333   1.86379e-11     0.0724648        102540        103117        185404   3.41481e-11
     0.023018       289.291       288.136     0.0996626       20.9549     -0.854706             0       19.0898     -0.576521             0       38.8296       12.3341             0       27.1653             0             0      0.215293   1.34844e-11     0.0639442        102547        103117        186008   2.47059e-11
    0.0231857       289.172       288.144     0.0983687       20.9373     -0.669797             0        18.685     -0.597329             0       38.4297       12.8354             0       27.8473             0             0      0.216596   1.17373e-11     0.0582802        102554        103116        186688   2.15048e-11
    0.0233534       289.054       288.152     0.0970748       20.9197     -0.484889             0       18.2803     -0.618137             0       38.0298       13.3368             0       28.5293             0             0      0.217898   9.99012e-12     0.0526162        102561        103116        187367   1.83038e-11
     0.023521       288.936        288.16     0.0957809       20.9021      -0.29998             0       17.8755     -0.638945             0       37.6298       13.8381             0       29.2112             0             0      0.219201   8.24298e-12     0.0469522        102568        103115        188047   1.51027e-11
    0.0236887       288.817       288.169     0.0944869       20.8845     -0.115072             0       17.4707     -0.659753             0       37.2299       14.3395             0       29.8932             0             0      0.220504   6.49584e-12     0.0412882        102576        103115        188726   1.19016e-11
    0.0238564       288.699       288.177      0.093193       20.8669     0.0698365             0        17.066     -0.680561             0       36.8299       14.8408             0       30.5752             0             0      0.221806    4.7487e-12     0.0356241        102583        103114        189406    8.7005e-12
     0.024024       288.592       288.185     0.0922764       20.8459      0.255675             0       16.6624      -0.70735             0       36.4735       15.2932             0       31.2909             0             0      0.223009   3.19231e-12     0.0303944        102590        103114        190104    5.8489e-12
    0.0241917       288.557       288.195      0.093616       20.8045      0.447074             0       16.2661       -0.7699             0       36.3772       15.4529             0       32.2081             0             0      0.223615   2.77643e-12     0.0277609        102597        103113        190916   5.08694e-12
    0.0243594       288.521       288.205     0.0949556       20.7631      0.638473             0       15.8698      -0.83245             0        36.281       15.6126             0       33.1253             0             0      0.224221   2.36056e-12     0.0251275        102605        103113        191728   4.32498e-12
     0.024527       288.485       288.214     0.0962952       20.7218      0.829871             0       15.4735        -0.895             0       36.1847       15.7722             0       34.0426             0             0      0.224826   1.94468e-12     0.0224941        102612        103112        192540   3.56302e-12
    0.0246947        288.45       288.224     0.0976348       20.6804       1.02127             0       15.0771     -0.957549             0       36.0884       15.9319             0       34.9598             0             0      0.225432   1.52881e-12     0.0198606        102620        103111        193352   2.80106e-12
    0.0248624       288.414       288.234     0.0989744        20.639       1.21267             0       14.6808       -1.0201             0       35.9922       16.0916             0        35.877             0             0      0.226038   1.11293e-12     0.0172272        102627        103111        194163    2.0391e-12
      0.02503       288.384       288.243      0.100344       20.5544       1.39523             0       14.3031      -1.08868             0       35.9047       16.2292             0       36.8344             0             0      0.226571   7.53127e-13     0.0149075        102635        103110        195009   1.37987e-12
    0.0251977       288.375       288.251      0.101853       20.2713       1.53731             0       14.0106      -1.18492             0       35.8574       16.2655             0       37.9761             0             0      0.226774   6.50302e-13     0.0140258        102642        103109        196008   1.19147e-12
    0.0253654       288.366       288.258      0.103361       19.9881       1.67939             0       13.7181      -1.28116             0       35.8101       16.3019             0       39.1177             0             0      0.226977   5.47477e-13     0.0131441        102650        103108        197007   1.00308e-12
     0.025533       288.357       288.266      0.104869        19.705       1.82147             0       13.4257      -1.37739             0       35.7628       16.3383             0       40.2593             0             0       0.22718   4.44651e-13     0.0122624        102657        103107        198006   8.14684e-13
    0.0257007       288.349       288.274      0.106377       19.4219       1.96355             0       13.1332      -1.47363             0       35.7156       16.3747             0       41.4009             0             0      0.227382   3.41826e-13     0.0113807        102664        103106        199006   6.26289e-13
    0.0258684        288.34       288.281      0.107886       19.1388       2.10563             0       12.8407      -1.56987             0       35.6683       16.4111             0       42.5425             0             0      0.227585   2.39001e-13      0.010499        102672        103105        200005   4.37894e-13
     0.026036       288.331       288.288      0.109248       18.7944       2.22993             0       12.5618      -1.66987             0       35.5089       16.4322             0       43.7236             0             0      0.227733   1.54172e-13    0.00985447        102679        103104        201051   2.82472e-13
    0.0262037       288.321       288.291      0.110076       18.2264       2.28929             0       12.3323      -1.78364             0         34.94       16.3973             0       45.0487             0             0      0.227682   1.35082e-13     0.0100761        102686        103102        202269   2.47496e-13
    0.0263714       288.311       288.295      0.110904       17.6584       2.34865             0       12.1028      -1.89741             0       34.3712       16.3624             0       46.3738             0             0      0.227632   1.15992e-13     0.0102978        102693        103101        203488   2.12519e-13
     0.026539       288.301       288.299      0.111732       17.0903       2.40802             0       11.8734      -2.01118             0       33.8023       16.3275             0       47.6989             0             0      0.227581   9.69018e-14     0.0105194        102700        103099        204706   1.77542e-13
    0.0267067       288.291       288.302       0.11256       16.5223       2.46738             0       11.6439      -2.12494             0       33.2334       16.2927             0       49.0241             0             0       0.22753   7.78116e-14     0.0107411        102706        103098        205925   1.42565e-13
    0.0268744        288.28       288.306      0.113388       15.9543       2.52674             0       11.4145      -2.23871             0       32.6646       16.2578             0       50.3492             0             0      0.227479   5.87214e-14     0.0109628        102713        103096        207143   1.07589e-13
     0.027042       288.268       288.309       0.11414       15.3144       2.59504             0       11.1787       -2.3537             0       32.0457       16.1838             0       51.7077             0             0      0.227259   4.30721e-14     0.0119179        102720        103095        208395   7.89161e-14
    0.0272097        288.25        288.31      0.114663       14.4602       2.69002             0       10.9242      -2.47234             0       31.2776       15.9929             0       53.1658             0             0      0.226535   3.77044e-14     0.0150648        102725        103093        209749   6.90815e-14
    0.0273774       288.231       288.311      0.115187       13.6059         2.785             0       10.6696      -2.59098             0       30.5094        15.802             0       54.6239             0             0      0.225811   3.23367e-14     0.0182117        102729        103091        211103   5.92469e-14
     0.027545       288.212       288.312       0.11571       12.7516       2.87998             0        10.415      -2.70962             0       29.7412        15.611             0        56.082             0             0      0.225088    2.6969e-14     0.0213586        102734        103090        212456   4.94123e-14
    0.0277127       288.194       288.313      0.116233       11.8973       2.97495             0       10.1605      -2.82826             0       28.9731       15.4201             0       57.5401             0             0      0.224364   2.16013e-14     0.0245054        102739        103088        213810   3.95777e-14
    0.0278804       288.175       288.314      0.116757        11.043       3.06993             0       9.90593       -2.9469             0       28.2049       15.2292             0       58.9982             0             0       0.22364   1.62336e-14     0.0276523        102744        103086        215164    2.9743e-14
     0.028048       288.161       288.316      0.117268       10.2151       3.12654             0       9.64633      -3.06773             0       27.4134       14.9928             0       60.4445             0             0      0.222669     1.197e-14     0.0318752        102749        103084        216499   2.19313e-14
    0.0282157       288.158       288.317      0.117748       9.45289        3.0876             0        9.3742        -3.194             0       26.5635       14.6432             0       61.8614             0             0      0.221081    1.0455e-14     0.0387768        102752        103082        217789   1.91556e-14
    0.0283834       288.155       288.318      0.118229       8.69068       3.04867             0       9.10207      -3.32027             0       25.7136       14.2936             0       63.2783             0             0      0.219494   8.94009e-15     0.0456785        102754        103081        219079   1.63799e-14
    0.0285511       288.153       288.319       0.11871       7.92846       3.00973             0       8.82993      -3.44655             0       24.8638        13.944             0       64.6952             0             0      0.217907   7.42513e-15     0.0525801        102757        103079        220369   1.36042e-14
    0.0287187        288.15        288.32      0.119191       7.16625        2.9708             0        8.5578      -3.57282             0       24.0139       13.5944             0       66.1121             0             0      0.216319   5.91017e-15     0.0594818        102760        103077        221659   1.08285e-14
    0.0288864       288.147       288.321      0.119672       6.40404       2.93186             0       8.28567       -3.6991             0       23.1641       13.2448             0        67.529             0             0      0.214732   4.39521e-15     0.0663834        102763        103075        222949   8.05285e-15
    0.0290541       288.148       288.321      0.120054         5.782       2.81019             0       8.01131      -3.82668             0       22.3368       12.8388             0       68.8642             0             0      0.213292   3.26878e-15     0.0726421        102765        103073        224153   5.98901e-15
    0.0292217       288.158       288.322      0.120228       5.45461       2.51461             0       7.73229        -3.957             0       21.5571       12.3141             0       70.0275             0             0      0.212164   2.95896e-15     0.0775493        102766        103071        225176   5.42137e-15
    0.0293894       288.168       288.323      0.120403       5.12722       2.21904             0       7.45327      -4.08733             0       20.7774       11.7894             0       71.1909             0             0      0.211035   2.64915e-15     0.0824564        102768        103069        226200   4.85373e-15
    0.0295571       288.178       288.324      0.120577       4.79983       1.92346             0       7.17425      -4.21765             0       19.9977       11.2647             0       72.3542             0             0      0.209906   2.33933e-15     0.0873636        102769        103068        227224    4.2861e-15
    0.0297247       288.188       288.324      0.120752       4.47243       1.62788             0       6.89523      -4.34798             0       19.2179         10.74             0       73.5176             0             0      0.208778   2.02952e-15     0.0922708        102771        103066        228248   3.71846e-15
    0.0298924       288.198       288.325      0.120927       4.14504       1.33231             0        6.6162       -4.4783             0       18.4382       10.2153             0       74.6809             0             0      0.207649    1.7197e-15     0.0971779        102772        103064        229271   3.15082e-15
    0.0300601       288.204       288.326      0.121008       3.93702        1.0006             0       6.33475      -4.60735             0       17.8188       9.62169             0       75.7071             0             0      0.206882   1.50892e-15      0.100513        102773        103063        230152   2.76463e-15
    0.0302277       288.205       288.326      0.120922       3.94286      0.604175             0       6.04893      -4.73411             0       17.4868       8.90455             0       76.4877             0             0      0.206763   1.47557e-15      0.101032        102774        103061        230777   2.70352e-15
    0.0303954       288.205       288.327      0.120836        3.9487      0.207747             0       5.76311      -4.86087             0       17.1548       8.18741             0       77.2682             0             0      0.206643   1.44222e-15       0.10155        102774        103060        231402   2.64242e-15
    0.0305631       288.205       288.327      0.120749       3.95454     -0.188681             0       5.47728      -4.98762             0       16.8228       7.47026             0       78.0488             0             0      0.206524   1.40887e-15      0.102069        102774        103058        232027   2.58132e-15
    0.0307307       288.205       288.328      0.120663       3.96038     -0.585109             0       5.19146      -5.11438             0       16.4907       6.75312             0       78.8293             0             0      0.206405   1.37552e-15      0.102587        102775        103057        232652   2.52021e-15
    0.0308984       288.206       288.328      0.120577       3.96623     -0.981537             0       4.90564      -5.24114             0       16.1587       6.03598             0       79.6099             0             0      0.206286   1.34217e-15      0.103106        102775        103056        233277   2.45911e-15
    0.0310661       288.204       288.328      0.120497       4.01082      -1.36609             0       4.62104      -5.36414             0       16.0143       5.30151             0       80.2184             0             0      0.206286   1.32094e-15      0.103105        102775        103055        233748   2.42021e-15
    0.0312337       288.198       288.329      0.120427       4.11499      -1.73239             0       4.33831      -5.48136             0       16.1586       4.54041             0       80.5624             0             0       0.20647   1.31834e-15      0.102305        102775        103054        233983   2.41545e-15
    0.0314014       288.192       288.329      0.120356       4.21917      -2.09868             0       4.05557      -5.59859             0       16.3028       3.77931             0       80.9065             0             0      0.206654   1.31575e-15      0.101505        102775        103053        234218   2.41069e-15
    0.0315691       288.186       288.329      0.120286       4.32335      -2.46497             0       3.77284      -5.71582             0        16.447       3.01821             0       81.2505             0             0      0.206838   1.31315e-15      0.100706        102774        103052        234453   2.40593e-15
    0.0317367        288.18        288.33      0.120215       4.42753      -2.83127             0       3.49011      -5.83304             0       16.5913       2.25711             0       81.5945             0             0      0.207022   1.31055e-15     0.0999057        102774        103051        234688   2.40117e-15
    0.0319044       288.174        288.33      0.120144       4.53171      -3.19756             0       3.20738      -5.95027             0       16.7355       1.49601             0       81.9385             0             0      0.207206   1.30795e-15     0.0991059        102774        103050        234923   2.39642e-15
    0.0320721       288.169        288.33      0.120072        4.5961      -3.51861             0        2.9323      -6.06274             0       16.9738      0.795416             0       82.1098             0             0      0.207447   1.30491e-15     0.0980587        102773        103049        235030   2.39084e-15
    0.0322397       288.163        288.33      0.119998       4.60771      -3.77965             0       2.66738      -6.16892             0        17.337       0.17508             0       82.0521             0             0      0.207763   1.30127e-15     0.0966833        102773        103048        234969   2.38416e-15
    0.0324074       288.158        288.33      0.119923       4.61932      -4.04069             0       2.40246      -6.27509             0       17.7001     -0.445255             0       81.9945             0             0      0.208079   1.29763e-15      0.095308        102772        103048        234907   2.37749e-15
    0.0325751       288.152        288.33      0.119849       4.63093      -4.30173             0       2.13753      -6.38126             0       18.0633      -1.06559             0       81.9368             0             0      0.208395   1.29398e-15     0.0939326        102771        103047        234845   2.37082e-15
    0.0327427       288.147        288.33      0.119774       4.64254      -4.56277             0       1.87261      -6.48743             0       18.4264      -1.68593             0       81.8791             0             0      0.208712   1.29034e-15     0.0925573        102771        103047        234783   2.36415e-15
    0.0329104       288.141       288.329        0.1197       4.65415      -4.82382             0       1.60769       -6.5936             0       18.7896      -2.30626             0       81.8214             0             0      0.209028    1.2867e-15     0.0911819        102770        103046        234722   2.35748e-15
    0.0330781       288.139       288.329      0.119637       4.59579      -5.04225             0       1.35419      -6.69351             0       19.1467      -2.80272             0       81.6099             0             0      0.209311   1.28284e-15     0.0899515        102769        103046        234588    2.3504e-15
    0.0332457        288.14       288.329      0.119588       4.45714       -5.2118             0        1.1138      -6.78624             0       19.4968      -3.15705             0       81.2219             0             0      0.209556   1.27872e-15     0.0888876        102769        103045        234370   2.34286e-15
    0.0334134       288.141       288.328      0.119539       4.31849      -5.38134             0      0.873411      -6.87896             0       19.8469      -3.51137             0       80.8339             0             0      0.209801   1.27461e-15     0.0878236        102768        103045        234153   2.33532e-15
    0.0335811       288.142       288.328       0.11949       4.17984      -5.55089             0      0.633021      -6.97168             0       20.1971       -3.8657             0       80.4459             0             0      0.210045   1.27049e-15     0.0867596        102767        103045        233935   2.32778e-15
    0.0337487       288.143       288.327      0.119442       4.04119      -5.72044             0      0.392632       -7.0644             0       20.5472      -4.22002             0       80.0579             0             0       0.21029   1.26637e-15     0.0856957        102766        103045        233718   2.32023e-15
    0.0339164       288.144       288.327      0.119393       3.90254      -5.88998             0      0.152242      -7.15713             0       20.8973      -4.57435             0       79.6699             0             0      0.210535   1.26226e-15     0.0846317        102766        103044        233501   2.31269e-15
    0.0340841       288.149       288.326      0.119354       3.72971       -6.0444             0    -0.0757544      -7.24145             0       21.1788      -4.77543             0       79.1523             0             0      0.210628   1.25881e-15     0.0842279        102765        103044        233259   2.30637e-15
    0.0342518        288.16       288.326      0.119325        3.5229      -6.18377             0     -0.291431      -7.31744             0        21.392      -4.82417             0       78.5059             0             0       0.21057   1.25601e-15     0.0844804        102764        103045        232993   2.30125e-15
    0.0344194        288.17       288.325      0.119297       3.31609      -6.32314             0     -0.507109      -7.39342             0       21.6052      -4.87291             0       77.8596             0             0      0.210511   1.25322e-15     0.0847328        102764        103045        232727   2.29613e-15
    0.0345871        288.18       288.325      0.119268       3.10929      -6.46251             0     -0.722786       -7.4694             0       21.8184      -4.92165             0       77.2132             0             0      0.210453   1.25043e-15     0.0849853        102763        103045        232462   2.29102e-15
    0.0347548       288.191       288.324       0.11924       2.90248      -6.60188             0     -0.938463      -7.54538             0       22.0316      -4.97038             0       76.5668             0             0      0.210395   1.24764e-15     0.0852378        102762        103045        232196    2.2859e-15
    0.0349224       288.201       288.324      0.119211       2.69567      -6.74125             0      -1.15414      -7.62136             0       22.2448      -5.01912             0       75.9204             0             0      0.210337   1.24484e-15     0.0854902        102761        103045        231930   2.28079e-15
    0.0350901       288.213       288.324      0.119229       2.49576      -6.87781             0      -1.35856      -7.68655             0       22.3837      -4.93336             0       75.1562             0             0      0.210117   1.24169e-15     0.0864471        102761        103046        231674     2.275e-15
    0.0352578       288.228       288.323      0.119286       2.30179      -7.01194             0      -1.55329      -7.74244             0       22.4586      -4.73176             0       74.2906             0             0      0.209758   1.23822e-15     0.0880105        102760        103046        231427   2.26865e-15