#           y             T         TMean   TPrime2Mean           U_x           U_y           U_z       UMean_x       UMean_y       UMean_z UPrime2Mea... UPrime2Mea... UPrime2Mea... UPrime2Mea... UPrime2Mea... UPrime2Mea...            O2           H2O          C3H8             p         pMean   pPrime2Mean           CO2
  1.11022e-19        287.68       288.199      0.180164       36.2088  -1.82409e-18             0       16.1994   1.07147e-17             0       32.7756   2.44769e-17             0    2.2269e-17             0             0      0.225047   8.79021e-17     0.0215341        102281        103208        247387   1.61053e-16
  0.000500501       287.759       288.199      0.185472       36.2141   -0.00822322             0       16.2096      0.048303             0       32.8006      0.110345             0      0.100391             0             0      0.221722   1.18173e-16     0.0359897        102281        103208        247370   2.16515e-16
     0.001001       287.839       288.199      0.190795       36.2193    -0.0164542             0       16.2198     0.0966057             0       32.8257      0.220668             0      0.201022             0             0      0.218388   1.48506e-16     0.0504884        102280        103208        247353    2.7209e-16
    0.0015015       288.012         288.2      0.204421        36.225    -0.0285522             0       16.2431       0.14472             0       32.9271      0.320315             0      0.421168             0             0      0.210092   2.09517e-16     0.0865553        102278        103207        247299   3.83873e-16
     0.002002       288.186       288.201      0.218053       36.2302    -0.0406959             0       16.2664      0.192834             0       33.0284      0.419949             0      0.641757             0             0      0.201792   2.70499e-16      0.122644        102277        103207        247245   4.95604e-16
    0.0025025       288.329       288.208      0.233214       36.1326    -0.0642134             0       16.2752      0.240576             0        33.117       0.51628             0      0.972783             0             0      0.192235    3.2438e-16      0.164196        102274        103207        247210   5.94325e-16
     0.003003       288.472       288.214      0.248344       36.0332    -0.0881115             0       16.2837      0.288317             0       33.2041      0.612673             0        1.3043             0             0      0.182689   3.78209e-16      0.205699        102272        103206        247174   6.92949e-16
    0.0035035       288.517       288.228       0.25857       35.6146     -0.175067             0       16.2532      0.335795             0       33.0381      0.719369             0       1.71682             0             0       0.17505   4.23245e-16      0.238914        102268        103206        247139   7.75464e-16
     0.004004       288.561       288.243      0.268759       35.1927     -0.263036             0       16.2225       0.38328             0       32.8699       0.82626             0       2.12979             0             0       0.16744   4.68196e-16      0.271998        102265        103205        247103   8.57823e-16
    0.0045045       288.524       288.262      0.274498       34.3676     -0.476716             0       16.1533      0.431727             0       32.4112      0.957179             0        2.5989             0             0      0.163596    5.0261e-16      0.288712        102261        103204        247062   9.20875e-16
   0.00500501       288.487        288.28      0.280217       33.5399     -0.691551             0       16.0839      0.480165             0       31.9525       1.08814             0        3.0685             0             0      0.159786   5.36877e-16      0.305277        102257        103204        247021   9.83659e-16
   0.00550551       288.447       288.297      0.283969       32.4396      -1.02065             0       15.9938      0.527673             0       31.4891       1.22312             0       3.58619             0             0      0.159345    5.5668e-16      0.307197        102254        103203        247025   1.01994e-15
   0.00600601       288.407       288.313      0.287695        31.338      -1.35035             0       15.9038      0.575136             0       31.0274       1.35714             0       4.10464             0             0      0.158926   5.76473e-16      0.309015        102250        103202        247028   1.05621e-15
   0.00650651       288.402       288.328      0.289351       30.1301      -1.73023             0       15.8142      0.618795             0       30.7033       1.41296             0       4.68605             0             0      0.160452   5.95426e-16      0.302383        102247        103202        247039   1.09093e-15
   0.00700701       288.396       288.343      0.290975       28.9242      -2.10971             0       15.7248       0.66239             0       30.3805       1.46705             0       5.26873             0             0      0.161993   6.14504e-16      0.295683        102244        103201        247049   1.12589e-15
   0.00750751        288.37       288.354      0.290293       27.8585      -2.46046             0         15.65      0.701502             0       30.1499       1.39986             0       5.94139             0             0      0.164646   6.42493e-16      0.284146        102241        103200        247077   1.17717e-15
   0.00800801       288.342       288.365      0.289569       26.7997      -2.81014             0       15.5756      0.740628             0       29.9228        1.3323             0       6.61617             0             0      0.167307   6.70739e-16      0.272579        102239        103199        247106   1.22892e-15
   0.00850851       288.253       288.367        0.2862       26.1654       -3.0938             0       15.5233      0.780622             0       29.9054       1.24195             0       7.42115             0             0      0.170399   7.14829e-16      0.259137        102236        103198        247215    1.3097e-15
   0.00900901       288.164       288.369      0.282783       25.5432      -3.37567             0        15.471      0.820763             0       29.8909       1.15453             0       8.22808             0             0      0.173503     7.596e-16      0.245637        102233        103197        247325   1.39173e-15
   0.00950951       288.053       288.368      0.276749       25.5784      -3.55981             0       15.4208      0.868901             0       30.0331       1.22612             0       9.14095             0             0      0.177337   8.41542e-16      0.228968        102230        103196        247534   1.54186e-15
      0.01001       287.942       288.367      0.270716       25.6272      -3.74073             0       15.3699      0.917272             0       30.1731       1.30288             0       10.0543             0             0      0.181176   9.23828e-16       0.21228        102227        103195        247745   1.69263e-15
    0.0105105       287.863       288.368      0.264735       26.3384      -3.76443             0       15.2828      0.977022             0       30.2047       1.63269             0       10.9893             0             0      0.185226   1.02298e-15       0.19467        102223        103193        248035   1.87429e-15
     0.011011       287.785       288.369      0.258801       27.0531      -3.78774             0       15.1945       1.03693             0        30.237       1.96708             0       11.9242             0             0      0.189239   1.12113e-15      0.177222        102218        103192        248327   2.05412e-15
    0.0115115       287.763       288.375         0.255       27.9169      -3.79358             0       15.0523       1.10387             0       30.3009        2.5051             0        12.856             0             0      0.191601   1.17465e-15      0.166954        102211        103190        248719   2.15218e-15
     0.012012       287.742        288.38      0.251214       28.7719       -3.8024             0       14.9086       1.17086             0       30.3735       3.04646             0       13.7874             0             0      0.193927   1.22711e-15       0.15684        102203        103188        249113   2.24829e-15
    0.0125125       287.747       288.388      0.248045       29.2636      -3.93249             0       14.7034       1.23973             0       30.7982       3.72352             0       14.6988             0             0      0.194813   1.23612e-15      0.152989        102193        103187        249635   2.26481e-15
     0.013013       287.752       288.396      0.244904        29.746      -4.06416             0       14.4963       1.30851             0       31.2308       4.40208             0       15.6078             0             0      0.195705    1.2448e-15      0.149109        102184        103185        250162   2.28071e-15
    0.0135135       287.742       288.405      0.242752       29.8826      -4.25486             0       14.2182       1.37362             0       31.9622       5.13648             0       16.4292             0             0      0.196848   1.24104e-15      0.144137        102173        103183        250902   2.27382e-15
     0.014014       287.732       288.414      0.240658       30.0103       -4.4467             0       13.9386       1.43832             0       32.6979       5.86802             0       17.2476             0             0      0.198005   1.23705e-15      0.139107        102162        103181        251648   2.26651e-15
    0.0145145       287.708       288.421      0.240549       29.8272      -4.67798             0       13.6033       1.48915             0       33.5858       6.50008             0       17.9629             0             0      0.199632   1.22513e-15      0.132034        102149        103180        252653   2.24466e-15
     0.015015       287.685       288.428      0.240482       29.6338      -4.91143             0       13.2672       1.53931             0       34.4722       7.12569             0       18.6762             0             0      0.201252   1.21321e-15       0.12499        102137        103178        253666   2.22282e-15
    0.0155155       287.669       288.431      0.241789        29.107      -5.21513             0       12.9045       1.56751             0       35.3102       7.54253             0       19.3249             0             0      0.202656   1.20165e-15      0.118885        102124        103176        254931   2.20165e-15
     0.016016       287.654       288.434      0.243084       28.5759      -5.52026             0       12.5416       1.59506             0       36.1364        7.9533             0       19.9725             0             0      0.204053   1.19029e-15      0.112812        102111        103174        256205   2.18084e-15
    0.0165165       287.667       288.435      0.244039       27.9144      -5.86889             0       12.1766       1.60286             0       36.6021       8.18035             0       20.5868             0             0      0.205227   1.18471e-15      0.107707        102099        103173        257752   2.17061e-15
     0.017017        287.68       288.436      0.244883       27.2489       -6.2181             0       11.8124       1.61033             0       37.0524       8.40329             0       21.2007             0             0       0.20639   1.17922e-15      0.102651        102086        103171        259305   2.16056e-15
    0.0175175       287.707       288.433      0.242554       26.4716      -6.58409             0       11.4692        1.6083             0       37.0653       8.50923             0       21.8021             0             0      0.207242   1.17636e-15     0.0989478        102074        103170        261028   2.15532e-15
     0.018018       287.733        288.43      0.240141       25.6853      -6.95075             0       11.1269       1.60619             0         37.06       8.61167             0       22.4044             0             0      0.208074   1.17355e-15     0.0953298        102063        103168        262756   2.15015e-15
    0.0185185       287.752       288.423      0.235452       24.6619      -7.33563             0       10.8105       1.60213             0       36.5653       8.62058             0       23.0328             0             0      0.208383   1.17186e-15     0.0939878        102051        103167        264634   2.14706e-15
     0.019019        287.77       288.416      0.230842       23.6349      -7.72067             0       10.4948       1.59798             0       36.0484       8.62531             0       23.6647             0             0      0.208682   1.17022e-15      0.092689        102040        103166        266516   2.14405e-15
    0.0195195       287.778       288.411      0.228221       22.5172      -8.10993             0        10.196       1.59196             0       34.9688        8.5241             0       24.3832             0             0      0.208729   1.16983e-15     0.0924839        102030        103164        268480   2.14336e-15
      0.02002       287.786       288.407      0.225656       21.4031      -8.49922             0       9.89782       1.58575             0       33.8736       8.41766             0       25.1067             0             0      0.208766   1.16953e-15     0.0923223        102020        103163        270441   2.14279e-15
    0.0205205       287.792       288.409      0.224446       20.3786      -8.88919             0       9.61403       1.57519             0       32.4027       8.18598             0       25.9493             0             0      0.208563   1.17098e-15     0.0932062        102011        103162        272321   2.14545e-15
     0.021021       287.799       288.412      0.223223       19.3543      -9.27859             0       9.33083       1.56443             0       30.9267       7.94773             0       26.7961             0             0      0.208355   1.17245e-15     0.0941078        102002        103161        274194   2.14815e-15
    0.0215215         287.8       288.422      0.221685       18.3346      -9.65493             0       9.06126       1.54901             0       29.3357       7.55968             0       27.7403             0             0      0.208055   1.17441e-15     0.0954115        101994        103159        275903   2.15175e-15
     0.022022       287.802       288.432      0.220216       17.3101        -10.03             0       8.79198       1.53335             0       27.7487       7.16481             0       28.6863             0             0      0.207762   1.17632e-15     0.0966865        101986        103158        277597   2.15524e-15
    0.0225225       287.794       288.445       0.22025       16.1803      -10.3786             0       8.52899       1.51249             0       26.2503       6.62197             0       29.6718             0             0      0.207612   1.17695e-15     0.0973412        101979        103157        278987   2.15639e-15
     0.023023       287.786       288.458       0.22035       15.0472      -10.7259             0       8.26609       1.49122             0       24.7625       6.07365             0       30.6565             0             0      0.207464   1.17753e-15     0.0979812        101972        103156        280359   2.15745e-15
    0.0235235       287.769       288.469      0.221831       13.8459      -11.0464             0       8.00495       1.46157             0       23.4923       5.41191             0       31.6275             0             0      0.207387   1.17709e-15      0.098316        101966        103155        281364   2.15665e-15
     0.024024       287.753        288.48        0.2234       12.6426      -11.3649             0       7.74433       1.43134             0       22.2359       4.74685             0       32.5963             0             0      0.207312   1.17663e-15     0.0986448        101961        103154        282349    2.1558e-15
    0.0245245       287.732        288.49      0.226692       11.4007      -11.6424             0       7.49381       1.38959             0       21.2503        4.0159             0       33.5216             0             0      0.207263   1.17574e-15     0.0988562        101957        103154        282922   2.15418e-15
     0.025025       287.711         288.5      0.229996       10.1574      -11.9171             0        7.2445        1.3473             0       20.2822        3.2831             0       34.4439             0             0      0.207216   1.17484e-15       0.09906        101954        103153        283470   2.15254e-15
    0.0255255       287.689        288.51      0.233527       8.88829      -12.1368             0       7.01836       1.29466             0       19.6465       2.51511             0       35.3081             0             0      0.207203   1.17365e-15     0.0991189        101952        103153        283546   2.15035e-15
     0.026026       287.667        288.52      0.236895       7.61982      -12.3531             0       6.79373       1.24166             0       19.0324       1.74508             0       36.1687             0             0      0.207187   1.17246e-15     0.0991851        101951        103153        283597   2.14817e-15
    0.0265265       287.651       288.529      0.237274       6.36263      -12.5076             0       6.59666        1.1821             0       18.8095      0.937933             0       36.9638             0             0      0.207141   1.17136e-15     0.0993851        101952        103153        283184   2.14615e-15
     0.027027       287.635       288.539      0.237475       5.10649      -12.6583             0       6.40105       1.12234             0       18.6107      0.127871             0        37.755             0             0      0.207089   1.17027e-15     0.0996117        101954        103152        282746   2.14415e-15
    0.0275275       287.626       288.546      0.234566       3.86882      -12.7427             0       6.23087       1.05896             0       18.8347     -0.733315             0       38.4764             0             0       0.20693   1.16936e-15      0.100306        101958        103152        281890   2.14248e-15
     0.028028       287.618       288.553      0.231578       2.63321      -12.8233             0       6.06213      0.995457             0        19.081      -1.59707             0       39.1925             0             0      0.206761   1.16843e-15       0.10104        101962        103152        281013   2.14078e-15
    0.0285285       287.613       288.556      0.227274       1.43223      -12.8397             0       5.91759      0.930044             0        19.704      -2.50408             0       39.8194             0             0       0.20644   1.16715e-15      0.102436        101969        103152        279811   2.13844e-15
     0.029029       287.608       288.559      0.223033      0.234869      -12.8522             0       5.77452      0.864541             0       20.3417      -3.41127             0       40.4377             0             0      0.206107   1.16584e-15      0.103881        101977        103153        278597   2.13603e-15
    0.0295295       287.606       288.559      0.219832      -0.90372       -12.801             0       5.65532      0.797582             0       21.2181      -4.32125             0        40.916             0             0      0.205595   1.16384e-15       0.10611        101986        103153        277194   2.13237e-15
      0.03003       287.605       288.559      0.216692      -2.03763      -12.7455             0       5.53726      0.730682             0       22.1007      -5.22765             0       41.3803             0             0      0.205076   1.16178e-15      0.108364        101997        103154        275783    2.1286e-15
    0.0305305       287.606       288.558      0.214499      -3.09831      -12.6242             0       5.43708      0.664719             0       23.0804      -6.07808             0       41.6264             0             0      0.204468   1.15874e-15      0.111009        102009        103155        274251   2.12303e-15
     0.031031       287.608       288.556      0.212277      -4.15134      -12.4977             0       5.33741      0.599174             0       24.0598      -6.92063             0       41.8534             0             0      0.203859   1.15561e-15      0.113655        102022        103155        272714    2.1173e-15
    0.0315315       287.616       288.554      0.209597      -5.08866      -12.2912             0       5.24537      0.539949             0       25.0356      -7.64404             0         41.79             0             0      0.203254   1.15121e-15      0.116288        102036        103157        271092   2.10924e-15
     0.032032       287.625       288.552      0.206859      -6.01405      -12.0781             0       5.15402      0.481415             0       26.0061      -8.35787             0       41.7046             0             0       0.20264   1.14669e-15      0.118955        102050        103158        269470   2.10094e-15
    0.0325325        287.64        288.55      0.203285      -6.76477      -11.7672             0       5.07257       0.43301             0        26.898      -8.93133             0       41.2958             0             0      0.201912   1.14025e-15      0.122123        102066        103159        267837   2.08915e-15
     0.033033       287.657       288.548      0.199644      -7.50045      -11.4498             0       4.99276       0.38532             0       27.7868      -9.49916             0       40.8673             0             0       0.20117   1.13371e-15       0.12535        102081        103160        266206   2.07716e-15
    0.0335335        287.68       288.547      0.195053      -8.02337      -11.0417             0       4.93616      0.347753             0       28.6299      -9.98715             0       40.1604             0             0      0.200239   1.12561e-15      0.129394        102097        103162        264607   2.06233e-15
     0.034034       287.703       288.546      0.190448      -8.53229      -10.6307             0       4.88194      0.310656             0       29.4799      -10.4716             0       39.4378             0             0      0.199309   1.11759e-15      0.133439        102113        103164        263016   2.04764e-15
    0.0345345       287.728       288.545      0.185659      -8.84935        -10.18             0       4.86027      0.279998             0       30.4238      -10.9078             0       38.5022             0             0      0.198373   1.11058e-15       0.13751        102129        103165        261546    2.0348e-15
     0.035035       287.752       288.544      0.180909      -9.15992      -9.73276             0       4.84145      0.249488             0       31.3755      -11.3365             0       37.5539             0             0       0.19744   1.10372e-15      0.141565        102144        103167        260086   2.02221e-15
    0.0355355       287.777       288.543       0.17667      -9.38439      -9.33062             0       4.86054       0.22093             0       32.4289      -11.6646             0       36.4361             0             0      0.196554   1.09872e-15      0.145419        102159        103169        258767   2.01305e-15
     0.036036       287.801       288.542      0.172425      -9.61119      -8.93487             0       4.88211       0.19271             0       33.4948      -11.9852             0       35.3092             0             0      0.195677    1.0939e-15      0.149233        102174        103171        257457   2.00423e-15
    0.0365365       287.825       288.542      0.168095      -9.86812      -8.62161             0       4.93568      0.168824             0       34.7209      -12.2088             0       34.0638             0             0      0.194918   1.09143e-15      0.152529        102188        103173        256259    1.9997e-15
     0.037037       287.849       288.542      0.163793       -10.122      -8.30954             0       4.99072      0.145609             0       35.9743      -12.4299             0       32.8105             0             0      0.194156   1.08927e-15      0.155843        102202        103175        255074   1.99574e-15
    0.0375375       287.884       288.542      0.159838      -10.3374      -8.01239             0       5.06431      0.130791             0       37.5702      -12.6185             0       31.4593             0             0      0.193345   1.09094e-15      0.159369        102215        103177        254049    1.9988e-15
     0.038038        287.92       288.543      0.156087      -10.5321      -7.70843             0       5.13933      0.116503             0       39.1764      -12.8083             0       30.1017             0             0      0.192536   1.09301e-15      0.162886        102228        103179        253035    2.0026e-15
    0.0385385       287.964       288.541      0.154829      -10.4742      -7.32167             0       5.23175      0.108651             0       40.9083      -13.0111             0       28.6672             0             0       0.19175   1.09992e-15      0.166304        102241        103181        252171   2.01526e-15
     0.039039       288.007       288.539      0.153836      -10.3928      -6.92762             0       5.32601      0.101048             0       42.6093      -13.2136             0       27.2298             0             0         0.191   1.10718e-15      0.169566        102253        103183        251318   2.02856e-15
    0.0395395       288.033       288.533      0.155964      -10.0334       -6.4474             0         5.442     0.0963954             0       43.9444      -13.4112             0       25.7596             0             0      0.190675   1.11854e-15      0.170977        102263        103185        250617   2.04938e-15
      0.04004       288.058       288.527      0.158265      -9.67014      -5.96728             0       5.55858     0.0918278             0       45.2473      -13.6028             0       24.2888             0             0      0.190375   1.13054e-15      0.172284        102273        103187        249940   2.07135e-15
    0.0405405       288.061       288.517      0.162558      -9.26157      -5.48839             0       5.68203     0.0882357             0       46.1795      -13.7237             0       22.8109             0             0      0.190348   1.14983e-15      0.172398        102281        103190        249532   2.10671e-15
     0.041041       288.063       288.508      0.166925      -8.86671      -5.01432             0       5.80306     0.0847864             0       47.1202      -13.8366             0       21.3332             0             0      0.190336   1.17037e-15      0.172453        102289        103192        249143   2.14433e-15
    0.0415415       288.037       288.496      0.172125      -8.62521      -4.59421             0       5.89687     0.0829356             0       48.1566      -13.8598             0       19.8569             0             0      0.190475   1.20476e-15      0.171847        102295        103194        248970   2.20735e-15
     0.042042       288.011       288.484       0.17727      -8.39908       -4.1773             0       5.98671     0.0811756             0       49.2069      -13.8689             0       18.3792             0             0      0.190614   1.23914e-15      0.171243        102301        103196        248808   2.27033e-15
    0.0425425       287.972       288.473      0.181813      -8.34054      -3.79522             0        6.0331     0.0804053             0       50.4099      -13.7248             0       16.8862             0             0      0.190751   1.27333e-15      0.170649        102306        103198        248775   2.33299e-15
     0.043043       287.933       288.461      0.186244      -8.28912      -3.41399             0       6.07621     0.0791989             0       51.5701      -13.5521             0       15.3895             0             0      0.190867   1.30788e-15      0.170145        102311        103199        248756   2.39627e-15
    0.0435435       287.892       288.453      0.189485      -8.31324      -3.04165             0       6.08433     0.0733562             0       52.2754      -13.0749             0       13.8535             0             0      0.190761   1.34609e-15      0.170603        102316        103201        248895   2.46629e-15
     0.044044       287.851       288.445      0.192712      -8.33287      -2.67225             0       6.08843     0.0666523             0       52.9115      -12.5657             0        12.319             0             0      0.190625   1.38494e-15      0.171197        102320        103203        249041   2.53747e-15
    0.0445445       287.816        288.44      0.195783      -8.30595      -2.33321             0       6.05077      0.051024             0       52.8316      -11.7239             0       10.7998             0             0      0.190162   1.43039e-15      0.173209        102323        103205        249265   2.62074e-15
     0.045045       287.782       288.434      0.198718      -8.26587      -2.00047             0       6.00684     0.0352933             0       52.7258      -10.8577             0        9.2904             0             0      0.189682   1.47479e-15      0.175295        102326        103207        249496   2.70208e-15
    0.0455455       287.758       288.427      0.200262      -8.09278      -1.73132             0       5.89959     0.0185273             0        52.358      -9.74421             0       7.87993             0             0      0.189032   1.50859e-15      0.178121        102328        103209        249787   2.76402e-15