#           y             T         TMean   TPrime2Mean           U_x           U_y           U_z       UMean_x       UMean_y       UMean_z UPrime2Mea... UPrime2Mea... UPrime2Mea... UPrime2Mea... UPrime2Mea... UPrime2Mea...            O2           H2O          C3H8             p         pMean   pPrime2Mean           CO2
  1.11022e-19       288.092       288.025     0.0866304       24.5297  -1.56936e-15             0       22.4286  -3.51379e-16             0        10.652   4.70691e-17             0   1.06962e-16             0             0      0.229997   9.15542e-16   1.15049e-05        102354        103141        198280   1.67744e-15
  0.000500501       288.096       288.026     0.0867875       24.5372      0.105832             0       22.4298     0.0137853             0       10.6738     -0.145244             0     0.0311682             0             0      0.229992    2.6158e-15   3.61443e-05        102354        103141        198204   4.79264e-15
     0.001001         288.1       288.027     0.0869661       24.5446      0.211708             0        22.431     0.0275703             0       10.6957     -0.290499             0      0.062466             0             0      0.229986   4.35736e-15   6.11002e-05        102353        103141        198127    7.9835e-15
    0.0015015       288.158       288.037     0.0978217       24.5527      0.339014             0       22.4342     0.0412238             0       10.7557      -0.44106             0       0.15846             0             0      0.229944   2.67075e-14   0.000243972        102353        103141        197968   4.89332e-14
     0.002002       288.219       288.047      0.110507        24.561      0.466354             0       22.4373     0.0548696             0       10.8161      -0.59169             0      0.254892             0             0      0.229901   5.00014e-14   0.000429912        102353        103140        197809   9.16119e-14
    0.0025025       288.668       288.109       0.57873       24.6151      0.602265             0        22.444      0.066571             0       10.9775      -0.75945             0      0.460212             0             0      0.229683   3.08281e-13    0.00137972        102353        103140        197614   5.64829e-13
     0.003003       289.126       288.172       1.06562       24.6688      0.738605             0       22.4507     0.0782714             0       11.1396     -0.927559             0      0.666796             0             0      0.229461   5.75096e-13     0.0023414        102353        103140        197419   1.05368e-12
    0.0035035       290.955        288.34       4.64432        24.649      0.946139             0        22.475      0.089806             0       11.4219      -1.15344             0       1.08296             0             0      0.228788   2.25586e-12    0.00526929        102354        103139        197266   4.13316e-12
     0.004004       292.799       288.508       8.27462       24.6295       1.15438             0       22.4995      0.101309             0       11.7053      -1.38034             0        1.5011             0             0      0.228109   3.99202e-12    0.00822068        102355        103138        197115   7.31412e-12
    0.0045045       296.479       288.753       18.3019       24.6425       1.45024             0       22.5628      0.108916             0       12.1246      -1.73342             0       2.16471             0             0       0.22676   1.25967e-11     0.0140854        102356        103137        197057   2.30794e-11
   0.00500501       300.172       288.998       28.3855       24.6558       1.74497             0       22.6266      0.116564             0       12.5442      -2.08687             0       2.82847             0             0      0.225402   2.14879e-11     0.0199926        102357        103136        197000   3.93699e-11
   0.00550551       305.061       289.244       44.0483       24.7033       1.92635             0       22.7475      0.128208             0       12.9877      -2.47608             0       3.50568             0             0      0.223074    5.8756e-11     0.0301137        102356        103134        196958   1.07652e-10
   0.00600601       309.977       289.489       59.6863       24.7441       2.10898             0       22.8671      0.139853             0       13.4286      -2.86512             0       4.18142             0             0      0.220738   9.67247e-11      0.040268        102355        103133        196914   1.77218e-10
   0.00650651       317.026        289.67       73.2812       24.2462       2.39462             0       22.8771      0.151543             0       13.6562      -3.24105             0       4.73525             0             0      0.217774   1.92384e-10      0.053158        102358        103132        196765   3.52482e-10
   0.00700701       324.098        289.85       86.7773       23.7444       2.67803             0       22.8823       0.16328             0       13.8779      -3.61366             0       5.28727             0             0      0.214805   2.89241e-10     0.0660655        102362        103130        196616   5.29944e-10
   0.00750751       332.793       289.961       93.3133       22.9735       2.80467             0       22.5517      0.178333             0        13.684       -3.7524             0       5.71168             0             0      0.211553   4.70531e-10     0.0802055        102368        103129        196414     8.621e-10
   0.00800801       341.512       290.071       99.7903       22.2073       2.92467             0       22.2124      0.193631             0       13.4808      -3.88531             0        6.1349             0             0      0.208283   6.54295e-10     0.0944213        102375        103128        196210   1.19879e-09
   0.00850851        351.78       290.133       102.635       21.7273       2.63672             0       21.3401      0.223983             0       12.7108      -3.65942             0       6.48468             0             0      0.203943   9.90251e-10      0.113293        102378        103127        195891   1.81433e-09
   0.00900901        362.05       290.193        105.45       21.2484        2.3431             0       20.4593      0.254277             0        11.932      -3.42844             0        6.8284             0             0      0.199561   1.33179e-09      0.132344        102382        103126        195567   2.44008e-09
   0.00950951       372.469       290.182       106.699       20.8358       1.74037             0       19.1125      0.281442             0       10.6769      -2.91995             0       6.84098             0             0       0.19294   1.97769e-09       0.16113        102388        103125        195005    3.6235e-09
      0.01001       382.806        290.17        107.94       20.4108       1.14174             0       17.7658       0.30791             0       9.43185      -2.41385             0       6.84737             0             0      0.186279   2.62991e-09      0.190089        102395        103125        194440   4.81848e-09
    0.0105105       389.131        290.09       108.836       19.3814      0.744516             0       16.4253      0.300176             0       8.67454      -2.02465             0       6.55023             0             0      0.177674   3.59139e-09      0.227502        102400        103125        193721    6.5801e-09
     0.011011       395.336       290.009        109.73       18.3521      0.352488             0       15.0959      0.291216             0       7.94915      -1.65162             0        6.2607             0             0      0.169035   4.54928e-09      0.265066        102406        103126        193004   8.33512e-09
    0.0115115       396.216         289.9       110.544       17.3303      0.191616             0       14.2651      0.227672             0       8.64243      -1.99706             0       6.30908             0             0      0.158859   5.34721e-09      0.309309        102407        103125        192341   9.79708e-09
     0.012012       396.977       289.792       111.176       16.3187     0.0266853             0       13.4471      0.164282             0       9.36758      -2.35576             0       6.37004             0             0      0.148724   6.11564e-09      0.353375        102409        103125        191679    1.1205e-08
    0.0125125       392.923       289.668       104.407       15.7252     -0.303345             0       13.1545      0.107167             0       11.3894      -3.25364             0       6.94274             0             0      0.140242   5.68441e-09      0.390253        102410        103125        191001   1.04149e-08
     0.013013       388.687       289.544       97.4613       15.1329     -0.637621             0       12.8703     0.0499478             0       13.4429      -4.15515             0       7.52679             0             0      0.132047   5.22828e-09      0.425884        102411        103124        190320   9.57918e-09
    0.0135135       377.638       289.425       83.9325        14.588      -1.13094             0       12.8972    -0.0111881             0       16.6824      -5.19257             0       8.53634             0             0      0.134602   3.83887e-09      0.414773        102413        103122        189552   7.03352e-09
     0.014014       366.433       289.306        70.387       14.0575      -1.62789             0       12.9319    -0.0720324             0       19.9358      -6.22808             0       9.55731             0             0      0.137461   2.46379e-09      0.402342        102415        103121        188784   4.51413e-09
    0.0145145        349.82       289.189       56.2608       14.0298      -2.25079             0       13.2342     -0.122756             0       23.6741      -7.19725             0       10.9745             0             0      0.150855   1.58613e-09       0.34411        102416        103119        188001   2.90608e-09
     0.015015       333.295       289.071       42.1915       14.0241        -2.877             0       13.5434     -0.173262             0       27.4009      -8.15934             0       12.4014             0             0      0.164156   7.28764e-10      0.286277        102417        103117        187221   1.33523e-09
    0.0155155       319.594       288.921        29.963       14.7286      -3.61009             0       14.0763     -0.216768             0       30.7562      -8.89249             0       14.1382             0             0      0.174485   5.27716e-10      0.241368        102418        103114        186530   9.66874e-10
     0.016016       306.136       288.772       17.9131       15.4488      -4.34356             0       14.6165     -0.259474             0       34.1071      -9.60662             0         15.88             0             0      0.184536    3.3222e-10      0.197671        102418        103111        185851   6.08688e-10
    0.0165165       299.999       288.628       11.2659       16.6459       -5.0883             0       15.3795      -0.27801             0       37.3238      -9.74566             0       17.7724             0             0       0.18616   3.04665e-10       0.19061        102418        103108        185555   5.58204e-10
     0.017017       294.036       288.486       4.77693       17.8443      -5.82842             0       16.1517     -0.294549             0         40.54      -9.83494             0       19.6661             0             0      0.187723   2.77425e-10      0.183811        102417        103104        185282   5.08295e-10
    0.0175175       293.011       288.394       2.78495       19.0828      -6.43733             0       17.1816     -0.254345             0       43.7379      -8.51087             0       21.5932             0             0      0.187571   2.59112e-10      0.184474        102418        103100        185672   4.74742e-10
     0.018018       292.014       288.303      0.856347       20.3131      -7.03746             0       18.2063     -0.212488             0       46.9114      -7.14899             0       23.5212             0             0       0.18758   2.39814e-10      0.184433        102419        103096        186091   4.39385e-10
    0.0185185       291.782       288.249      0.624591        21.324      -7.40264             0       19.0943     -0.126352             0       49.4295      -4.77477             0       25.4707             0             0      0.191918   1.94147e-10      0.165573        102422        103091        187271   3.55713e-10
     0.019019       291.527       288.195      0.398875       22.3168      -7.75779             0       19.9655    -0.0414278             0       51.8934      -2.40889             0       27.4214             0             0      0.196325   1.48251e-10      0.146412        102425        103086        188478   2.71624e-10
    0.0195195       290.723       288.157      0.326058         22.85      -7.85889             0       20.4105     0.0128064             0       52.9814      -0.25437             0        29.405             0             0      0.202479   9.66065e-11      0.119657        102429        103081        190375   1.77001e-10
      0.02002       289.923        288.12      0.254816       23.3562      -7.95054             0       20.8435     0.0658866             0       53.9864       1.87879             0       31.3994             0             0       0.20852   4.62572e-11     0.0933917        102433        103076        192296   8.47517e-11
    0.0205205       289.213       288.106      0.221392       23.2154      -7.81554             0       20.9915     0.0912688             0       53.0002       3.49939             0       33.6545             0             0      0.211854   2.70056e-11     0.0788938        102438        103071        194794   4.94793e-11
     0.021021       288.523       288.092      0.188813       23.0525      -7.67281             0       21.1301      0.115598             0       51.9359       5.09791             0       35.9201             0             0      0.215067   8.41132e-12     0.0649245        102443        103066        197306   1.54111e-11
    0.0215215       288.307       288.094      0.175514       22.3869      -7.35375             0       21.0575      0.115914             0       49.0929       6.19279             0       38.4271             0             0      0.215508   4.80952e-12     0.0630098        102449        103060        200137   8.81194e-12
     0.022022       288.099       288.097       0.16231       21.7156      -7.03293             0       20.9741      0.114694             0       46.2104         7.269             0       40.9402             0             0      0.215831   1.34012e-12     0.0616024        102454        103055        202982   2.45535e-12
    0.0225225       288.039       288.109      0.151192       20.9237      -6.67385             0       20.6556     0.0800832             0       42.4684       7.93973             0       43.5861             0             0       0.21362   7.47189e-13     0.0712154        102460        103049        206119   1.36899e-12
     0.023023       287.983       288.122       0.14028       20.1498      -6.32624             0       20.3247     0.0434333             0        38.756       8.59225             0       46.2379             0             0      0.211366   1.77674e-13     0.0810179        102466        103043        209276   3.25532e-13
    0.0235235       287.991       288.142      0.133636       19.7498       -6.2164             0       19.7371    -0.0355082             0       35.6561       8.86704             0       49.0102             0             0      0.208207   9.38385e-14     0.0947504        102471        103038        212818    1.7193e-13
     0.024024       287.999       288.162      0.127203       19.3691      -6.12334             0       19.1466     -0.116438             0       32.6469       9.13616             0       51.7897             0             0      0.205096    1.3739e-14      0.108278        102476        103032        216383   2.51724e-14
    0.0245245        288.02       288.186      0.124955       19.3707      -6.36299             0        18.497     -0.236793             0       31.4359       9.29306             0       54.7137             0             0       0.20292   7.74113e-15      0.117739        102480        103026        220396   1.41832e-14
     0.025025        288.04       288.209      0.122814        19.378      -6.61588             0       17.8537     -0.357791             0       30.2664       9.46296             0       57.6444             0             0      0.200812   2.02268e-15      0.126904        102483        103021        224430   3.70593e-15
    0.0255255       288.039       288.227      0.122726       19.4928      -7.12045             0       17.3281     -0.491007             0       29.8852       9.87999             0          60.7             0             0      0.199997   1.61251e-15      0.130449        102484        103015        228875   2.95441e-15
     0.026026       288.037       288.246      0.122608       19.6095      -7.63073             0        16.804     -0.624648             0       29.4804       10.2998             0       63.7531             0             0      0.199234   1.22133e-15      0.133764        102485        103009        233332   2.23771e-15
    0.0265265       288.013       288.256      0.121953       19.7614      -8.24523             0        16.305     -0.766049             0       28.6471       10.7695             0       66.7599             0             0      0.199432   1.17654e-15      0.132904        102484        103002        238011   2.15565e-15
     0.027027       287.989       288.266      0.121233       19.9108      -8.86212             0       15.8001     -0.908328             0       27.7949       11.2272             0       69.7573             0             0      0.199656   1.13207e-15      0.131928        102482        102996        242691   2.07417e-15
    0.0275275       287.958       288.274      0.119376       20.0167      -9.52103             0        15.192      -1.06598             0       26.6107       11.4733             0       72.5902             0             0      0.200344   1.09312e-15       0.12894        102478        102988        247389   2.00279e-15
     0.028028       287.928       288.281      0.117536       20.1137      -10.1786             0       14.5778      -1.22445             0       25.4271       11.7094             0       75.4019             0             0      0.201043   1.05324e-15      0.125901        102474        102981        252070   1.92973e-15
    0.0285285       287.897       288.286      0.115981        20.061       -10.813             0       13.8611      -1.39673             0       24.2562        11.778             0       77.8573             0             0      0.201939   9.97834e-16      0.122005        102469        102973        256476   1.82822e-15
     0.029029       287.865       288.292      0.114513       19.9915      -11.4417             0       13.1386      -1.56951             0       23.1122        11.842             0       80.2789             0             0      0.202839   9.42581e-16      0.118092        102463        102965        260834   1.72698e-15
    0.0295295       287.835       288.292      0.114465       19.6488      -11.9763             0       12.3205      -1.75053             0        22.405       11.8312             0         82.15             0             0      0.203799   8.89771e-16      0.113918        102456        102958        264407   1.63023e-15
      0.03003       287.806       288.292       0.11445       19.2864      -12.5027             0       11.4977        -1.932             0       21.7529       11.8248             0       83.9751             0             0      0.204761    8.3793e-16      0.109734        102449        102951        267906   1.53524e-15
    0.0305305       287.785       288.291      0.114942       18.6132       -12.899             0       10.6028      -2.12055             0       21.9624       11.8864             0       85.0809             0             0      0.205759   8.01245e-16      0.105396        102441        102944        270224   1.46803e-15
     0.031031       287.765       288.289      0.115386       17.9223      -13.2887             0       9.70441      -2.30872             0       22.2364       11.9601             0       86.1358             0             0      0.206765   7.65329e-16       0.10102        102433        102938        272460   1.40223e-15
    0.0315315       287.755       288.287        0.1151       16.9649      -13.5779             0       8.75499      -2.49098             0       23.4866       12.2174             0       86.4228             0             0      0.207904   7.41038e-16     0.0960711        102426        102932        273432   1.35772e-15
     0.032032       287.746       288.286      0.114797       15.9983      -13.8665             0       7.80406      -2.67252             0       24.7776       12.4828             0       86.6652             0             0      0.209043   7.17566e-16     0.0911195        102418        102927        274334   1.31471e-15
    0.0325325       287.747       288.284      0.114259       14.8962       -14.147             0       6.83099      -2.84361             0       26.6666       12.8683             0       86.2531             0             0       0.21019   7.06059e-16     0.0861301        102410        102923        274213   1.29363e-15
     0.033033       287.749       288.281      0.113757       13.7906       -14.433             0       5.85828      -3.01373             0       28.5422       13.2477             0       85.8072             0             0      0.211326   6.95085e-16     0.0811902        102403        102919        274057   1.27352e-15
    0.0335335       287.759        288.28      0.113762       12.6347      -14.7974             0        4.8906      -3.17031             0       30.2288       13.5396             0       84.8817             0             0      0.212301   6.91631e-16     0.0769514        102396        102916        273396    1.2672e-15
     0.034034       287.769       288.278       0.11381        11.471      -15.1651             0       3.92386      -3.32595             0       31.8475       13.8058             0       83.9283             0             0      0.213264   6.88202e-16     0.0727637        102389        102914        272729   1.26091e-15
    0.0345345       287.779       288.278       0.11445          10.2      -15.5797             0       2.96994      -3.46869             0       32.5349       13.7199             0        82.594             0             0      0.214066   6.85119e-16     0.0692777        102382        102912        271981   1.25527e-15
     0.035035        287.79       288.278      0.115122       8.91201      -15.9885             0       2.01642      -3.61074             0       33.1342        13.596             0       81.2306             0             0      0.214871   6.81799e-16     0.0657801        102376        102911        271238   1.24918e-15
    0.0355355       287.795        288.28      0.116226       7.39834      -16.3203             0       1.06813      -3.74351             0        32.563       12.9651             0       79.4805             0             0       0.21571   6.75335e-16     0.0621285        102371        102911        270553   1.23734e-15
     0.036036         287.8       288.281      0.117375       5.86744      -16.6396             0      0.119565      -3.87573             0       31.9427       12.3002             0       77.6958             0             0      0.216546   6.68808e-16     0.0584973        102366        102911        269862   1.22538e-15
    0.0365365       287.801       288.283      0.119099        4.1145      -16.7982             0     -0.832431      -4.00079             0       30.6903       11.1961             0       75.4643             0             0       0.21732   6.61473e-16     0.0551297        102365        102912        269093   1.21194e-15
     0.037037       287.801       288.285      0.120899       2.35247      -16.9432             0      -1.78458      -4.12451             0       29.4591       10.0841             0       73.1972             0             0      0.218067   6.54347e-16     0.0518823        102363        102914        268297   1.19889e-15
    0.0375375         287.8       288.286      0.123644      0.476678      -16.9183             0      -2.73862      -4.23147             0       28.4943       8.87263             0       70.4843             0             0      0.218468   6.49827e-16     0.0501392        102366        102917        267167    1.1906e-15
     0.038038       287.799       288.287      0.126454      -1.39811        -16.88             0      -3.69134      -4.33597             0       27.6062        7.6904             0       67.7405             0             0      0.218847   6.45478e-16     0.0484921        102369        102921        265997   1.18264e-15
    0.0385385       287.796       288.287      0.130069      -3.26071      -16.6796             0      -4.62786      -4.41039             0       27.6509       6.86376             0       64.6206             0             0      0.218957   6.43209e-16      0.048012        102377        102926        264323   1.17848e-15
     0.039039       287.792       288.287      0.133747       -5.1124       -16.468             0      -5.55984      -4.48133             0       27.7946       6.09324             0       61.4806             0             0      0.219032   6.41136e-16      0.047689        102385        102932        262609   1.17468e-15
    0.0395395       287.776       288.285      0.138171      -6.83521      -16.1234             0       -6.4382       -4.5111             0       29.1094       5.98622             0       58.1041             0             0      0.218679   6.41378e-16     0.0492235        102396        102939        260413   1.17512e-15
      0.04004       287.759       288.283      0.142491       -8.5402      -15.7715             0      -7.30766      -4.53674             0       30.5155       5.93788             0       54.7178             0             0       0.21827   6.41983e-16      0.050998        102408        102947        258186   1.17623e-15
    0.0405405       287.734        288.28      0.145631      -10.0403      -15.3359             0      -8.07479      -4.51495             0         32.97       6.56428             0       51.2194             0             0      0.217227   6.46758e-16     0.0555333        102422        102956        255603   1.18498e-15
     0.041041       287.708       288.278      0.148443      -11.5179      -14.8956             0      -8.82896      -4.48855             0       35.4783       7.22934             0       47.7173             0             0      0.216113   6.51834e-16     0.0603787        102436        102965        253007   1.19428e-15
    0.0415415       287.677       288.278      0.147577      -12.7438      -14.4015             0      -9.43799      -4.41063             0       38.5879       8.32712             0       44.1744             0             0        0.2142   6.60271e-16      0.068697        102453        102974        250277   1.20974e-15
     0.042042       287.646       288.279      0.146607      -13.9441      -13.9048             0      -10.0319      -4.32797             0       41.7013       9.43408             0       40.6357             0             0      0.212236   6.68633e-16     0.0772357        102469        102984        247557   1.22506e-15
    0.0425425        287.62       288.281      0.144499      -14.8653      -13.3786             0      -10.4607      -4.19354             0       44.8564       10.6413             0       37.1423             0             0      0.209719    6.7617e-16     0.0881784        102487        102994        244946   1.23887e-15
     0.043043       287.595       288.284      0.142528      -15.7558      -12.8474             0      -10.8744      -4.05405             0       48.0028       11.8312             0       33.6641             0             0      0.207185   6.83357e-16     0.0991948        102504        103004        242361   1.25204e-15
    0.0435435       287.582       288.285      0.142005      -16.3186      -12.2617             0      -11.1279      -3.86085             0       51.0576       12.8385             0       30.3474             0             0      0.204471   6.86823e-16      0.110996        102522        103013        240069   1.25839e-15
     0.044044       287.571       288.285      0.141463      -16.8403      -11.6648             0      -11.3669      -3.66324             0       54.1496       13.8201             0       27.0536             0             0      0.201671   6.89962e-16      0.123169        102539        103022        237820   1.26414e-15
    0.0445445       287.574       288.282      0.140732      -16.9351      -10.9514             0      -11.4564       -3.4198             0       57.6276       14.5355             0       23.9971             0             0      0.197984   6.89712e-16      0.139201        102558        103030        236021   1.26368e-15
     0.045045       287.579       288.279          0.14       -16.978      -10.2225             0      -11.5326      -3.17304             0       61.2233       15.2174             0       20.9619             0             0      0.194307   6.89272e-16      0.155186        102577        103039        234270   1.26288e-15
    0.0455455       287.604       288.271      0.139257      -16.4969      -9.33752             0      -11.4744      -2.89274             0       66.0085       15.5621             0       18.1422             0             0      0.190738   6.86909e-16      0.170704        102595        103047        232996   1.25855e-15