#           y             T         TMean   TPrime2Mean           U_x           U_y           U_z       UMean_x       UMean_y       UMean_z UPrime2Mea... UPrime2Mea... UPrime2Mea... UPrime2Mea... UPrime2Mea... UPrime2Mea...            O2           H2O          C3H8             p         pMean   pPrime2Mean           CO2
  1.11022e-19       287.952       288.089      0.122517       19.9232   1.50458e-16             0       19.8742   -2.1457e-16             0       23.3768  -8.80675e-17             0   4.63947e-16             0             0      0.229938   1.17416e-16   0.000268891        102580        103172        220951   2.15128e-16
  0.000500501       287.953       288.091      0.124237       19.9098        0.2285             0       19.8764     0.0514178             0        23.425     -0.061248             0     0.0549268             0             0      0.229888   2.43574e-16   0.000486432        102580        103172        220900   4.46274e-16
     0.001001       287.954       288.093      0.125966       19.8963      0.457015             0       19.8785      0.102835             0       23.4733     -0.122482             0      0.110016             0             0      0.229838   3.71209e-16   0.000705768        102580        103172        220847   6.80124e-16
    0.0015015        287.96         288.1      0.132062       19.8512      0.692966             0        19.886      0.154187             0       23.6136     -0.176929             0      0.246086             0             0      0.229581   1.23554e-15    0.00182089        102581        103172        220664   2.26375e-15
     0.002002       287.966       288.107      0.138164       19.8058      0.928947             0       19.8936      0.205538             0       23.7546     -0.231382             0      0.382589             0             0      0.229323   2.10767e-15    0.00294343        102581        103172        220480   3.86165e-15
    0.0025025       287.986        288.12      0.146157       19.7247       1.17256             0       19.9072      0.256703             0       24.0876     -0.287162             0      0.626777             0             0       0.22864      4.92e-15    0.00591328        102582        103172        220200   9.01435e-15
     0.003003       288.007       288.134      0.154132       19.6434       1.41643             0        19.921      0.307867             0       24.4217     -0.342862             0      0.871694             0             0      0.227954   7.76086e-15    0.00889709        102583        103171        219919   1.42193e-14
    0.0035035       288.067       288.152       0.15933       19.5317        1.7038             0       19.9486      0.359095             0       24.9445     -0.385157             0       1.23744             0             0      0.226735   1.53285e-14     0.0141938        102583        103171        219615   2.80847e-14
     0.004004       288.128       288.171      0.164491       19.4196       1.99132             0        19.976       0.41034             0       25.4662     -0.427195             0       1.60418             0             0      0.225511   2.29369e-14     0.0195167        102584        103170        219311   4.20247e-14
    0.0045045       288.297       288.184       0.16507       19.2621       2.29733             0       19.9924      0.463825             0       25.8461     -0.437344             0       2.09484             0             0      0.223543   3.55953e-14     0.0280755        102585        103170        218964   6.52172e-14
   0.00500501       288.467       288.197      0.165621       19.1039       2.60313             0       20.0083      0.517346             0       26.2206      -0.44636             0       2.58637             0             0      0.221563   4.82924e-14     0.0366806        102586        103169        218616   8.84806e-14
   0.00550551       288.813       288.205      0.163316       18.8854       2.88869             0       19.9672      0.574386             0       26.0673     -0.343207             0        3.1646             0             0      0.218531   6.48185e-14     0.0498666        102587        103168        218225    1.1876e-13
   0.00600601        289.16       288.214      0.161032       18.6662       3.17326             0       19.9248      0.631517             0       25.9077     -0.237473             0       3.74263             0             0      0.215499   8.14133e-14     0.0630491        102588        103168        217833   1.49164e-13
   0.00650651       289.552       288.223      0.160422        18.402       3.37641             0       19.7743      0.696043             0       25.2352     0.0806167             0       4.30476             0             0      0.212534   1.03659e-13     0.0759384        102588        103167        217457   1.89924e-13
   0.00700701       289.943       288.232      0.159852       18.1362        3.5803             0        19.622      0.760661             0       24.5607      0.402786             0       4.86608             0             0      0.209586    1.2593e-13     0.0887554        102589        103166        217080   2.30727e-13
   0.00750751       290.304       288.246      0.162078       17.7652        3.8365             0       19.3342      0.831745             0        23.739       1.01222             0        5.3705             0             0       0.20781   1.49916e-13     0.0964786        102589        103166        216624   2.74674e-13
   0.00800801       290.669       288.259      0.164458       17.3947       4.09489             0       19.0445      0.902765             0       22.9197       1.62288             0       5.87454             0             0      0.206044   1.74139e-13      0.104156        102588        103165        216166   3.19055e-13
   0.00850851       291.303       288.279      0.176295       17.0586       4.48796             0       18.6384      0.969777             0       22.2388       2.30873             0       6.35546             0             0      0.204931   2.12939e-13      0.108997        102587        103164        215589   3.90143e-13
   0.00900901       291.946       288.299      0.188476       16.7329       4.88048             0       18.2309       1.03629             0       21.5644       2.98631             0       6.83857             0             0       0.20381   2.52185e-13      0.113869        102586        103164        215013   4.62051e-13
   0.00950951       293.078       288.317      0.219375       16.9804       5.24284             0       17.7516       1.07545             0       21.2424       3.21296             0       7.44057             0             0      0.202298   3.15832e-13      0.120442        102584        103163        214473   5.78664e-13
      0.01001       294.209       288.335      0.250352       17.2424       5.60435             0       17.2724       1.11406             0       20.9426       3.42892             0       8.04725             0             0      0.200778   3.79224e-13      0.127052        102583        103162        213934    6.9481e-13
    0.0105105       295.329       288.341      0.285138       18.2132       5.92443             0       16.7991       1.12503             0       21.7304       3.12139             0       8.88349             0             0      0.198843   4.30125e-13      0.135464        102582        103161        213468   7.88069e-13
     0.011011       296.433       288.346      0.319388       19.1824       6.24604             0       16.3262       1.13578             0       22.5584       2.81077             0       9.72273             0             0      0.196918   4.79958e-13      0.143836        102583        103160        213007   8.79373e-13
    0.0115115       296.804       288.333       0.32978       20.0742        6.6356             0       15.8689       1.13683             0       25.1787       2.36266             0       10.6955             0             0      0.195396    4.8236e-13       0.15045        102585        103158        212739   8.83773e-13
     0.012012       297.158       288.319      0.339761       20.9392       7.03136             0       15.4112       1.13793             0       27.8343       1.91561             0       11.6695             0             0      0.193876   4.83807e-13       0.15706        102588        103157        212479   8.86425e-13
    0.0125125       296.805       288.297       0.33307       20.7099       7.67985             0       14.9364       1.14075             0       31.9283       1.51171             0        12.697             0             0       0.19239   4.46484e-13      0.163521        102591        103155        212540   8.18042e-13
     0.013013       296.434       288.275      0.326419       20.4473       8.33382             0        14.463       1.14307             0       36.0268       1.10396             0       13.7296             0             0      0.190901   4.08529e-13      0.169995        102594        103154        212609   7.48502e-13
    0.0135135       295.384        288.26      0.321289        18.936       9.19302             0       14.0438       1.12647             0       40.2951      0.551481             0       14.9558             0             0      0.189301   3.46945e-13      0.176951        102593        103152        212984   6.35667e-13
     0.014014       294.322       288.245      0.316349       17.4149       10.0454             0       13.6272       1.10925             0       44.5363   -0.00592005             0       16.1897             0             0      0.187716   2.85244e-13      0.183844        102592        103150        213365   5.22621e-13
    0.0145145       292.863       288.241      0.318013       15.5591       10.6615             0        13.303       1.07076             0       47.8337     -0.734279             0       17.6887             0             0      0.186635   2.19531e-13      0.188543        102589        103148        213986   4.02222e-13
     0.015015       291.414       288.237      0.319886       13.7173       11.2664             0       12.9797       1.03229             0       51.0921      -1.46125             0       19.1886             0             0      0.185565   1.54515e-13      0.193194        102586        103146        214615   2.83101e-13
    0.0155155       290.322       288.241      0.328475       12.3295       11.5054             0       12.6885      0.994412             0       53.0893       -2.1435             0       20.7198             0             0      0.184852   1.12032e-13      0.196295        102583        103143        215492   2.05264e-13
     0.016016       289.247       288.244      0.337071       10.9548        11.743             0       12.3978      0.957137             0       55.0509      -2.82053             0       22.2482             0             0      0.184126   7.02968e-14      0.199454        102580        103141        216377   1.28797e-13
    0.0165165       288.671       288.253      0.345873       9.97713       11.9371             0       12.1235      0.938136             0       55.9355      -3.34013             0       23.6902             0             0      0.182987   5.11871e-14      0.204404        102577        103139        217494   9.37843e-14
     0.017017       288.106       288.261      0.354595       9.00371       12.1359             0       11.8502      0.919882             0       56.7971      -3.85649             0       25.1307             0             0      0.181817   3.24435e-14      0.209493        102573        103137        218617   5.94425e-14
    0.0175175       287.852       288.272      0.361019       8.15083       12.4705             0       11.6046      0.922844             0       57.0049      -4.28069             0       26.5273             0             0      0.179734   2.41011e-14      0.218549        102569        103135        219884   4.41577e-14
     0.018018       287.604       288.284      0.367317       7.30055       12.8054             0       11.3593      0.926635             0       57.1905      -4.70367             0       27.9238             0             0      0.177641   1.59059e-14      0.227648        102566        103133        221153   2.91427e-14
    0.0185185       287.534       288.297      0.370225       6.51974       13.1474             0       11.1236      0.952605             0       56.7784      -5.09385             0       29.3165             0             0      0.175284   1.16538e-14      0.237895        102562        103132        222504   2.13519e-14
     0.019019       287.468       288.309      0.372996       5.74715       13.4814             0       10.8875       0.97942             0       56.3325      -5.48098             0       30.7077             0             0      0.172957   7.48665e-15      0.248011        102558        103130        223854   1.37169e-14
    0.0195195       287.506       288.321      0.372305       5.18266        13.613             0       10.6404       1.02762             0       55.0331       -5.7908             0       32.0618             0             0      0.171385   5.47283e-15      0.254847        102551        103128        225168   1.00272e-14
      0.02002       287.546       288.332      0.371488       4.63513       13.7313             0       10.3929       1.07687             0       53.7035      -6.09487             0       33.4129             0             0      0.169838   3.50538e-15      0.261576        102545        103126        226477   6.42251e-15
    0.0205205       287.646       288.342      0.367653       4.49478       13.5323             0       10.1368       1.15132             0       51.6493      -6.26082             0       34.6937             0             0      0.168872   2.65061e-15      0.265772        102537        103125        227690   4.85641e-15
     0.021021       287.748       288.351      0.363868       4.37594       13.3208             0       9.88119       1.22694             0        49.588      -6.41789             0       35.9728             0             0        0.1679   1.81386e-15      0.270002        102529        103123        228895   3.32333e-15
    0.0215215        287.88        288.36      0.361217       4.74743       12.8242             0       9.63669       1.32909             0       47.3656      -6.37236             0       37.2125             0             0      0.166753   1.38805e-15      0.274988        102521        103122        229941   2.54316e-15
     0.022022       288.012        288.37      0.358759       5.13421       12.3213             0       9.39381       1.43247             0       45.1514      -6.31715             0        38.452             0             0      0.165603   9.72283e-16      0.279987        102514        103121        230979    1.7814e-15
    0.0225225       288.142       288.378        0.3605       5.85277        11.679             0       9.18626       1.56243             0       43.1144      -6.05169             0       39.6854             0             0      0.164386   7.74868e-16      0.285277        102508        103120        231834    1.4197e-15
     0.023023       288.272       288.385      0.362299       6.57203       11.0371             0        8.9807       1.69347             0        41.078      -5.77724             0        40.921             0             0      0.163193   5.83519e-16      0.290467        102502        103119        232679   1.06911e-15
    0.0235235       288.379       288.389      0.365312       7.30557       10.4028             0       8.81652        1.8468             0       39.0548      -5.31641             0        42.204             0             0      0.162479   5.17976e-16       0.29357        102499        103119        233330   9.49028e-16
     0.024024       288.486       288.393      0.368185       8.02873       9.77281             0       8.65374       2.00124             0       37.0245      -4.84321             0       43.4899             0             0      0.161798   4.54689e-16      0.296532        102496        103118        233971   8.33075e-16
    0.0245245       288.566       288.393      0.368282       8.54605       9.22913             0       8.51839       2.17751             0       34.8543      -4.12473             0       44.8351             0             0       0.16176   4.36145e-16      0.296698        102495        103117        234414   7.99098e-16
     0.025025       288.646       288.393      0.368248       9.05283       8.68974             0       8.38393       2.35498             0       32.6886      -3.38795             0       46.1834             0             0      0.161761   4.18563e-16      0.296692        102494        103117        234841   7.66886e-16
    0.0255255       288.714       288.389      0.365739       9.35964       8.23171             0       8.26617       2.55508             0       30.6095      -2.30339             0       47.5905             0             0       0.16251   4.19285e-16      0.293433        102493        103117        234962   7.68208e-16
     0.026026       288.782       288.385      0.363224       9.66647       7.77541             0       8.14918        2.7563             0       28.5599       -1.1975             0       49.0023             0             0      0.163319   4.20987e-16      0.289915        102492        103116        235064   7.71327e-16
    0.0265265       288.837       288.378      0.360611       9.97372       7.35071             0       8.04646       2.97817             0        27.048      0.297294             0       50.5011             0             0      0.165211   4.40575e-16      0.281692        102490        103116        234793   8.07215e-16
     0.027027       288.891        288.37      0.357994       10.2949       6.92703             0       7.94392       3.20083             0       25.5846       1.81244             0       52.0027             0             0      0.167152   4.62465e-16      0.273254        102489        103116        234502   8.47323e-16
    0.0275275       288.925        288.36      0.355312       10.8602       6.52138             0       7.84471       3.43759             0       24.9694       3.68406             0       53.5548             0             0      0.169959   5.24706e-16      0.261049        102488        103116        233847   9.61359e-16
     0.028028       288.959        288.35      0.352543       11.4456       6.12046             0       7.74476       3.67469             0       24.4019       5.56846             0       55.0994             0             0      0.172767   5.89076e-16      0.248838        102488        103117        233171    1.0793e-15
    0.0285285       288.977       288.341      0.348339       12.3685       5.79946             0       7.63238       3.91743             0       24.6368       7.66815             0       56.5168             0             0      0.175596   6.89346e-16      0.236541        102492        103117        232134   1.26301e-15
     0.029029       288.995       288.331      0.344011       13.3004       5.48992             0       7.51887       4.16017             0       24.9057       9.76715             0        57.916             0             0      0.178405   7.89724e-16      0.224326        102496        103118        231085   1.44692e-15
    0.0295295       288.996       288.324      0.337685       14.3799       5.36653             0       7.38692       4.40292             0       25.7272       11.8551             0       59.0187             0             0      0.180906   8.91855e-16      0.213451        102504        103119        229838   1.63404e-15
      0.03003       288.997       288.317      0.331317       15.4453       5.26093             0       7.25424       4.64555             0       26.5705       13.9295             0        60.101             0             0      0.183395   9.91297e-16      0.202632        102512        103119        228583   1.81624e-15
    0.0305305       288.978       288.312      0.324295       16.2903        5.4341             0       7.11009       4.88627             0       27.7545       15.7923             0       60.8648             0             0      0.185681   1.04861e-15      0.192691        102523        103120        227221   1.92125e-15
     0.031031       288.958       288.307      0.317297       17.0986       5.62528             0       6.96576       5.12667             0        28.956        17.634             0       61.6123             0             0      0.187968    1.1016e-15      0.182746        102534        103121        225861   2.01833e-15
    0.0315315       288.917       288.303      0.310665       17.3511       6.08884             0       6.81869        5.3623             0       30.4215       19.1573             0       62.1144             0             0      0.190266   1.08916e-15      0.172759        102549        103123        224527   1.99555e-15
     0.032032       288.874       288.298      0.304119       17.5568       6.56336             0       6.67163       5.59716             0       31.9057       20.6561             0       62.6035             0             0      0.192574   1.07385e-15      0.162723        102564        103124        223205    1.9675e-15
    0.0325325       288.812       288.292      0.298828       17.0774       7.19825             0       6.52457       5.82064             0       33.6627       21.7972             0       62.9018             0             0      0.195041   1.01653e-15      0.151996        102580        103125        222060   1.86246e-15
     0.033033       288.747       288.287      0.293733       16.5615       7.83177             0        6.3774       6.04262             0       35.4357       22.9102             0       63.1848             0             0      0.197529   9.57646e-16      0.141179        102596        103127        220930   1.75459e-15
    0.0335335       288.642        288.28      0.291432       15.5293       8.44591             0       6.22848        6.2433             0       37.4365       23.6253             0       63.2526             0             0      0.200305   8.76785e-16      0.129108        102608        103129        220004   1.60643e-15
     0.034034       288.531       288.274      0.289351       14.4817       9.04512             0       6.07908       6.44163             0       39.4434       24.3065             0        63.298             0             0      0.203107   7.95023e-16      0.116924        102620        103130        219095   1.45663e-15
    0.0345345       288.326       288.267      0.290292        13.225       9.43964             0       5.92315       6.60764             0       41.5347        24.525             0       63.0363             0             0      0.206263   7.00907e-16      0.103202        102628        103132        218436   1.28419e-15
     0.035035       288.115       288.261      0.291332       11.9598       9.82545             0       5.76605       6.77038             0        43.621       24.7053             0       62.7444             0             0      0.209383   6.07774e-16      0.089641        102637        103134        217798   1.11356e-15
    0.0355355       287.837       288.256      0.293678        10.581       10.0956             0       5.59363       6.88957             0       45.6408       24.3781             0       62.0522             0             0      0.212012   5.27685e-16     0.0782076        102642        103137        217443   9.66818e-16
     0.036036       287.564       288.252      0.295896       9.19116       10.3703             0       5.41917       7.00466             0       47.6497        24.012             0       61.3241             0             0       0.21451   4.50645e-16     0.0673476        102647        103139        217106   8.25666e-16
    0.0365365       287.358        288.25      0.296457       7.65766       10.7034             0       5.21854       7.06703             0       49.5172       23.1425             0        60.132             0             0      0.215308   4.12899e-16     0.0638785        102650        103142        217010   7.56508e-16
     0.037037       287.162       288.249      0.296819       6.13383       11.0272             0       5.01515       7.12481             0       51.3719       22.2371             0       58.9007             0             0      0.215917   3.77899e-16     0.0612294        102653        103145        216929   6.92382e-16
    0.0375375       287.088        288.25       0.29469       4.73104       11.2346             0       4.77732       7.12522             0       53.0665       20.8816             0       57.1786             0             0      0.214167   3.77268e-16     0.0688403        102656        103148        217040   6.91224e-16
     0.038038       287.024       288.251      0.292474       3.36442       11.4147             0       4.53608       7.12102             0       54.7524       19.4995             0       55.4184             0             0        0.2122   3.78211e-16     0.0773934        102660        103152        217168   6.92952e-16
    0.0385385       287.077       288.252       0.28921       2.43751       11.2627             0       4.25334       7.06086             0       56.3324       17.7936             0       53.1947             0             0      0.207598   3.98299e-16     0.0974012        102664        103155        217492   7.29758e-16
     0.039039       287.137       288.253      0.285817       1.54749        11.085             0       3.96689       6.99622             0       57.9091       16.0737             0       50.9397             0             0      0.202942   4.19094e-16      0.117645        102668        103159        217831   7.67858e-16
    0.0395395       287.281       288.255      0.280906       1.09342       10.6026             0       3.63669       6.87872             0       59.4454       14.1869             0       48.3145             0             0      0.197643   4.48239e-16      0.140681        102673        103163        218347   8.21257e-16
      0.04004       287.427       288.256      0.275759      0.669275       10.1013             0       3.30383       6.75666             0       60.9638        12.292             0       45.6701             0             0      0.192427   4.77934e-16      0.163363        102677        103167        218875   8.75664e-16
    0.0405405       287.606       288.259      0.267903       0.58929       9.38103             0       2.94035       6.58207             0       62.2772       10.3027             0       42.8048             0             0      0.188143   5.13953e-16      0.181985        102681        103172        219536   9.41658e-16
     0.041041        287.78       288.261      0.259936      0.531408       8.64628             0       2.57643       6.40291             0       63.5361       8.30685             0       39.9278             0             0      0.184034   5.49519e-16      0.199851        102684        103176        220200   1.00682e-15
    0.0415415       287.901       288.265      0.250732      0.720965       7.74934             0       2.20746       6.17256             0       64.1851       6.23675             0       36.9213             0             0      0.181873    5.8001e-16      0.209248        102685        103181        220905   1.06269e-15
     0.042042       288.013        288.27      0.241544      0.917113        6.8481             0       1.83962       5.93801             0       64.7662       4.16953             0       33.9074             0             0      0.179939   6.08726e-16      0.217655        102687        103186        221610    1.1153e-15
    0.0425425       288.028       288.276      0.232538       1.18515       5.89989             0       1.48415        5.6577             0       64.6083       2.13374             0       30.8128             0             0       0.18049   6.18085e-16      0.215259        102688        103190        222323   1.13245e-15
     0.043043        288.04       288.282      0.223488       1.45847       4.95635             0       1.12946       5.37425             0       64.4223      0.115399             0       27.7205             0             0      0.181096    6.2626e-16      0.212626        102689        103195        223040   1.14743e-15
    0.0435435        288.02       288.293      0.213961       1.78798       4.06242             0      0.783061       5.05743             0       63.9379      -1.71751             0       24.6533             0             0      0.182281   6.21863e-16      0.207475        102688        103199        223798   1.13937e-15
     0.044044       288.001       288.304       0.20445       2.13855       3.17748             0      0.438494       4.73781             0       63.4251      -3.50681             0        21.601             0             0      0.183388     6.175e-16       0.20266        102688        103204        224556   1.13138e-15
    0.0445445       287.986       288.319      0.195106       2.70729       2.38569             0      0.112873       4.38915             0       62.6185      -4.84418             0       18.7032             0             0      0.183693   6.13495e-16      0.201336        102686        103208        225331   1.12404e-15
     0.045045       287.969       288.335      0.186123       3.28861       1.60932             0     -0.208202       4.03698             0       61.7342      -6.10853             0       15.8288             0             0      0.183965   6.12365e-16      0.200152        102685        103213        226106   1.12197e-15
    0.0455455       287.932       288.347      0.180789       3.99723      0.988886             0     -0.483321       3.64936             0       60.0646      -6.63464             0       13.1907             0             0       0.18391   6.40319e-16      0.200391        102683        103216        226882   1.17318e-15