#           y             T         TMean   TPrime2Mean           U_x           U_y           U_z       UMean_x       UMean_y       UMean_z UPrime2Mea... UPrime2Mea... UPrime2Mea... UPrime2Mea... UPrime2Mea... UPrime2Mea...            O2           H2O          C3H8             p         pMean   pPrime2Mean           CO2
            0       287.954       288.337      0.230972       19.2499             0             0       13.6488             0             0       25.3047             0             0             0             0             0      0.226782   1.40551e-16     0.0139931        102568        103212        238612   2.57516e-16
  0.000500501       287.966       288.342      0.232358       19.2643     0.0444792             0       13.6612    0.00904996             0       25.3157    -0.0286868             0      0.068355             0             0      0.226343   1.50511e-16     0.0158986        102568        103212        238619   2.75764e-16
     0.001001       287.978       288.348      0.233749       19.2789      0.088965             0       13.6737     0.0181018             0       25.3268    -0.0573594             0      0.136888             0             0      0.225903   1.60502e-16     0.0178116        102568        103212        238626    2.9407e-16
    0.0015015        288.01       288.359       0.23753       19.3373      0.136736             0       13.7016     0.0281097             0       25.4295    -0.0789848             0      0.294267             0             0      0.224602   1.86174e-16     0.0234705        102568        103212        238613   3.41105e-16
     0.002002       288.043       288.371      0.241326       19.3961       0.18457             0       13.7295     0.0381126             0       25.5329     -0.100694             0      0.452076             0             0      0.223297   2.11872e-16      0.029142        102568        103212        238600   3.88189e-16
    0.0025025       288.087       288.381      0.248842       19.5209      0.247957             0        13.768     0.0469011             0       25.8195     -0.143296             0      0.717045             0             0      0.221272   2.44148e-16     0.0379494        102568        103211        238545   4.47325e-16
     0.003003       288.132       288.391       0.25636       19.6458      0.311451             0       13.8067     0.0556634             0       26.1073     -0.186315             0      0.982779             0             0      0.219244   2.76444e-16     0.0467666        102568        103211        238490   5.06497e-16
    0.0035035       288.186       288.397      0.264196         19.79      0.392585             0        13.863     0.0600836             0        26.592     -0.298358             0       1.37511             0             0      0.216839   3.12013e-16     0.0572202        102568        103211        238361   5.71667e-16
     0.004004        288.24       288.403      0.271953       19.9332      0.473867             0       13.9195     0.0644669             0       27.0773     -0.411118             0       1.76849             0             0      0.214431   3.47626e-16     0.0676907        102568        103210        238230   6.36915e-16
    0.0045045       288.307       288.409      0.269931       19.9442       0.57357             0       13.9815     0.0642763             0       27.6414     -0.612686             0       2.29181             0             0      0.211544   3.88535e-16     0.0802442        102568        103210        238023   7.11869e-16
   0.00500501       288.373       288.415      0.267818       19.9528      0.673344             0       14.0433     0.0640751             0       28.2031     -0.814605             0       2.81603             0             0      0.208652   4.29518e-16     0.0928195        102568        103209        237815   7.86957e-16
   0.00550551       288.452       288.423      0.256734       19.7246      0.780174             0       14.0769     0.0628176             0       28.5396      -1.05116             0       3.42944             0             0      0.205265   4.77799e-16      0.107542        102567        103208        237580   8.75417e-16
   0.00600601        288.53       288.431      0.245652       19.4947      0.886689             0       14.1096     0.0616001             0       28.8688      -1.28684             0       4.04301             0             0      0.201884   5.26127e-16      0.122245        102567        103207        237344   9.63964e-16
   0.00650651       288.598        288.44      0.234688       19.1215      0.967269             0       14.0802      0.063674             0       28.5944      -1.45038             0       4.67038             0             0      0.198855    5.7835e-16      0.135412        102567        103207        237065   1.05965e-15
   0.00700701       288.666       288.449      0.223767       18.7485        1.0473             0       14.0498     0.0658222             0       28.3095      -1.61205             0       5.29713             0             0      0.195841   6.30496e-16      0.148517        102566        103206        236785   1.15519e-15
   0.00750751       288.694       288.457      0.215886       18.3923       1.08849             0       13.9471     0.0732051             0       27.2876      -1.64249             0       5.88093             0             0      0.193824   6.77195e-16      0.157287        102566        103205        236468   1.24075e-15
   0.00800801       288.721       288.466      0.208033        18.037       1.12945             0       13.8434     0.0806369             0       26.2583      -1.67166             0       6.46408             0             0      0.191823   7.23687e-16      0.165986        102566        103204        236151   1.32593e-15
   0.00850851       288.707       288.476      0.201913       17.7359        1.1558             0       13.6885     0.0910726             0       24.7732      -1.62303             0       7.00653             0             0       0.19083   7.57466e-16      0.170302        102566        103203        235824   1.38782e-15
   0.00900901       288.693       288.486      0.195811       17.4351       1.18249             0       13.5332      0.101493             0        23.287      -1.57461             0       7.54868             0             0      0.189852   7.90949e-16      0.174557        102566        103202        235497   1.44917e-15
   0.00950951       288.654       288.497      0.190682       17.1514       1.22786             0       13.3568      0.111066             0       21.7348      -1.53827             0       8.07496             0             0      0.189653     8.083e-16       0.17542        102566        103201        235164   1.48096e-15
      0.01001       288.614       288.509      0.185583       16.8689       1.27385             0       13.1803       0.12061             0       20.1847      -1.50244             0       8.60079             0             0      0.189462   8.25573e-16      0.176253        102566        103200        234832    1.5126e-15
    0.0105105       288.552       288.521      0.181942       16.6462       1.35034             0       12.9971      0.128705             0       18.7397      -1.49188             0       9.10454             0             0      0.189623    8.3901e-16      0.175553        102566        103200        234493   1.53722e-15
     0.011011       288.491       288.534      0.178376       16.4266       1.42707             0       12.8136      0.136829             0        17.296      -1.48075             0       9.60703             0             0      0.189784   8.52552e-16      0.174852        102566        103199        234155   1.56203e-15
    0.0115115       288.424       288.546      0.178125       16.3439       1.51424             0       12.6174      0.146275             0       15.9111      -1.44415             0       10.0534             0             0      0.189969   8.70714e-16      0.174049        102566        103198        233808   1.59531e-15
     0.012012       288.358       288.558      0.177927       16.2637        1.6008             0       12.4206      0.155767             0       14.5272       -1.4066             0       10.4982             0             0      0.190152   8.88803e-16      0.173254        102567        103197        233462   1.62845e-15
    0.0125125       288.318       288.569      0.179867       16.2876       1.66211             0       12.2058      0.167105             0       13.1774      -1.33036             0       10.8753             0             0      0.190264   9.03958e-16      0.172766        102567        103196        233151   1.65622e-15
     0.013013       288.279       288.579      0.181759       16.3123       1.72221             0       11.9909      0.178425             0       11.8323       -1.2541             0       11.2512             0             0      0.190371   9.19057e-16      0.172299        102567        103196        232839   1.68388e-15
    0.0135135       288.258       288.589      0.181861       16.3655       1.73735             0       11.7709      0.189053             0       10.6626      -1.17733             0       11.5794             0             0      0.190295   9.32053e-16      0.172632        102567        103195        232545    1.7077e-15
     0.014014       288.237       288.598      0.181889       16.4191       1.75168             0       11.5509      0.199673             0        9.5024      -1.10054             0       11.9054             0             0      0.190212   9.45056e-16       0.17299        102568        103194        232251   1.73152e-15
    0.0145145       288.202       288.606      0.179321       16.4865       1.73783             0       11.3351      0.210023             0        8.6731      -1.02276             0       12.1544             0             0      0.189933   9.58277e-16      0.174205        102568        103194        231978   1.75574e-15
     0.015015       288.168       288.614      0.176722       16.5526       1.72434             0       11.1191       0.22053             0       7.85551     -0.943888             0       12.3982             0             0      0.189655   9.71293e-16      0.175412        102568        103194        231706   1.77959e-15
    0.0155155       288.123       288.621      0.173113       16.5768       1.72253             0        10.897      0.236074             0       7.41671     -0.829402             0       12.4718             0             0      0.189438   9.77696e-16      0.176359        102568        103193        231479   1.79132e-15
     0.016016       288.079       288.628      0.169548       16.5966       1.72125             0       10.6744      0.251841             0       6.99215     -0.715441             0       12.5386             0             0      0.189224   9.83818e-16      0.177286        102568        103193        231253   1.80254e-15
    0.0165165       288.046       288.634       0.16727       16.4821       1.73591             0       10.4392      0.274334             0       6.99853     -0.617384             0       12.4035             0             0      0.189145   9.81425e-16       0.17763        102568        103193        231063   1.79815e-15
     0.017017       288.013       288.639      0.165074        16.364       1.75019             0        10.204      0.296876             0       7.02241     -0.524344             0        12.264             0             0      0.189065   9.78786e-16      0.177978        102568        103193        230874   1.79332e-15
    0.0175175       287.993       288.641      0.165212       16.1404       1.75376             0       9.96773       0.32084             0       7.54366     -0.573857             0       11.9999             0             0      0.188953   9.69154e-16      0.178463        102568        103193        230692   1.77567e-15
     0.018018       287.972       288.644      0.165439       15.9161       1.75736             0       9.73174      0.344695             0       8.08145     -0.630437             0       11.7339             0             0      0.188842   9.59493e-16       0.17895        102569        103193        230510   1.75797e-15
    0.0185185       287.964       288.645      0.168021       15.6713       1.76187             0       9.50368      0.365608             0       9.06244     -0.876279             0       11.4144             0             0      0.188726   9.49076e-16      0.179452        102569        103193        230331   1.73888e-15
     0.019019       287.957       288.645      0.170677       15.4256       1.76851             0       9.27596      0.386436             0       10.0541      -1.12641             0       11.0934             0             0      0.188613    9.3885e-16      0.179945        102569        103193        230153   1.72015e-15
    0.0195195       287.958       288.644      0.175192       15.1561       1.82887             0       9.05687      0.405097             0       11.3164      -1.48522             0       10.7333             0             0      0.188554   9.33478e-16      0.180201        102569        103194        229978   1.71031e-15
      0.02002        287.96       288.644      0.179774       14.8849       1.89147             0       8.83809      0.423811             0       12.5824      -1.84217             0       10.3719             0             0      0.188497   9.28237e-16      0.180446        102570        103194        229801    1.7007e-15
    0.0205205       287.966       288.643      0.185979       14.5756       2.00752             0       8.62647      0.443823             0       13.9378      -2.15445             0       9.97735             0             0        0.1885   9.26149e-16      0.180435        102570        103194        229581   1.69688e-15
     0.021021       287.974       288.643      0.192297        14.268       2.12251             0       8.41549      0.464135             0       15.2857      -2.46007             0       9.58131             0             0      0.188505   9.24238e-16      0.180415        102570        103194        229359   1.69338e-15
    0.0215215       287.986       288.643      0.201178       14.0022       2.21337             0       8.21907      0.491284             0       16.4645      -2.61395             0       9.15036             0             0      0.188554   9.26371e-16      0.180201        102571        103195        229125   1.69728e-15
     0.022022       287.999       288.644       0.21022       13.7483       2.29724             0       8.02399      0.518504             0       17.6218      -2.75696             0       8.71977             0             0      0.188605   9.28922e-16      0.179979        102571        103195        228892   1.70196e-15
    0.0225225       288.022       288.647      0.222741       13.7546       2.22948             0       7.85809      0.547256             0       18.3151      -2.66386             0       8.29672             0             0      0.188693   9.40569e-16      0.179594        102571        103195        228690    1.7233e-15
     0.023023       288.047        288.65      0.235284       13.7739       2.15248             0       7.69325      0.576323             0       18.9913      -2.56397             0       7.87699             0             0      0.188784   9.53277e-16      0.179201        102571        103195        228490   1.74658e-15
    0.0235235       288.085       288.651      0.248275       14.0627       1.88379             0       7.55046      0.611921             0       19.3128      -2.32307             0       7.52587             0             0      0.188909   9.87969e-16      0.178658        102570        103196        228351   1.81014e-15
     0.024024       288.124       288.653      0.261141       14.3435        1.6189             0       7.40839      0.647895             0       19.6271      -2.07779             0       7.17872             0             0      0.189024    1.0228e-15      0.178155        102570        103196        228215   1.87396e-15
    0.0245245        288.16       288.654      0.271555       14.4669       1.42952             0        7.2804      0.691327             0       19.7968      -1.74538             0       6.91018             0             0       0.18896   1.06036e-15      0.178433        102570        103196        228147   1.94278e-15
     0.025025       288.195       288.655      0.281873        14.574       1.25205             0       7.15299      0.734903             0        19.969      -1.40866             0       6.64545             0             0      0.188887   1.09703e-15       0.17875        102569        103196        228084   2.00997e-15
    0.0255255       288.207       288.661      0.290364       14.3732       1.30076             0       7.03643      0.781219             0       20.1896     -0.990156             0       6.45341             0             0      0.188643   1.11671e-15      0.179814        102568        103195        228114   2.04603e-15
     0.026026       288.217       288.666      0.298689       14.1702       1.35409             0       6.91995      0.828061             0       20.4305     -0.578323             0       6.26736             0             0      0.188404    1.1362e-15      0.180853        102568        103195        228150   2.08174e-15
    0.0265265       288.196       288.671      0.303998       13.9274        1.4915             0       6.80484      0.884498             0       21.0397     -0.288169             0       6.19061             0             0      0.188268   1.15215e-15      0.181445        102567        103195        228301   2.11096e-15
     0.027027       288.173       288.677      0.308982       13.6887       1.62904             0       6.69048      0.941113             0       21.6628   -0.00847773             0       6.12226             0             0      0.188145   1.16812e-15       0.18198        102566        103195        228459   2.14021e-15
    0.0275275       288.124       288.678      0.308262       13.5225        1.7691             0       6.58903       1.00086             0       22.5291     0.0879266             0       6.20086             0             0      0.188257   1.18443e-15      0.181491        102565        103194        228717   2.17009e-15
     0.028028       288.074        288.68      0.307141       13.3587       1.90894             0          6.49       1.06018             0       23.3769      0.180286             0       6.28681             0             0      0.188381   1.20198e-15      0.180951        102564        103194        228980   2.20226e-15
    0.0285285       288.012       288.676      0.299274       13.2362       2.04512             0       6.43172       1.11204             0       23.9114      0.204458             0       6.49686             0             0      0.188703   1.24062e-15      0.179552        102563        103193        229328   2.27305e-15
     0.029029        287.95       288.673      0.291194       13.1193       2.18058             0       6.37695       1.16303             0       24.3983      0.232236             0       6.71227             0             0      0.189017   1.28009e-15      0.178189        102562        103193        229683   2.34537e-15
    0.0295295       287.906       288.666      0.279674        13.094        2.3044             0       6.37911       1.19982             0       24.1129      0.318562             0       7.01484             0             0      0.189192   1.33324e-15      0.177427        102560        103192        230141   2.44274e-15
      0.03003       287.865        288.66      0.268124       13.0796       2.42587             0        6.3843       1.23565             0       23.7746      0.409703             0       7.32054             0             0      0.189348   1.38585e-15      0.176749        102559        103191        230604   2.53914e-15
    0.0305305       287.858       288.655       0.25611       13.2379       2.51061             0       6.43709       1.25643             0       22.6086      0.576268             0        7.6753             0             0      0.189199   1.43012e-15      0.177394        102558        103190        231150   2.62024e-15
     0.031031       287.853       288.651      0.244004       13.4002       2.59428             0       6.49143       1.27637             0       21.4082       0.74219             0       8.03128             0             0      0.189033   1.47471e-15      0.178117        102557        103189        231701   2.70195e-15
    0.0315315       287.881        288.65      0.230487       13.6236       2.66199             0       6.56929       1.28379             0       19.6863      0.898383             0       8.40564             0             0      0.188592   1.52427e-15      0.180035        102555        103188        232331   2.79275e-15
     0.032032       287.912       288.649      0.216928       13.8336       2.73124             0       6.64747       1.29063             0       17.9585       1.04738             0       8.77961             0             0      0.188112   1.57591e-15      0.182123        102554        103188        232965   2.88736e-15
    0.0325325       287.989        288.65      0.202767       13.8496        2.8232             0       6.73028       1.28905             0       16.1421       1.09108             0       9.14793             0             0      0.187056   1.65791e-15      0.186712        102552        103187        233644   3.03761e-15
     0.033033       288.065       288.651      0.188769       13.8495       2.91698             0       6.81302       1.28718             0       14.3428       1.12532             0       9.51491             0             0      0.185981   1.73999e-15      0.191388        102550        103187        234321     3.188e-15
    0.0335335       288.144       288.653      0.177073       13.6209        3.0365             0        6.8947        1.2813             0       12.7853       1.02565             0       9.86275             0             0      0.184623   1.82317e-15       0.19729        102548        103186        234959   3.34039e-15
     0.034034       288.219       288.655      0.165591       13.3908       3.15697             0       6.97637       1.27525             0       11.2532      0.917659             0       10.2087             0             0        0.1833   1.90298e-15      0.203041        102546        103185        235595   3.48662e-15
    0.0345345       288.253       288.656      0.157029       13.1396       3.29059             0       7.05791       1.26694             0        10.071      0.695794             0       10.5286             0             0      0.182453   1.93674e-15      0.206725        102544        103185        236211   3.54847e-15
     0.035035       288.285       288.657      0.148625       12.8876        3.4259             0       7.13981       1.25853             0       8.90836      0.465208             0       10.8449             0             0      0.181634   1.96838e-15      0.210287        102542        103185        236824   3.60644e-15
    0.0355355       288.294       288.658      0.142306        12.626        3.5838             0       7.22643       1.24894             0       8.00555      0.118755             0       11.1132             0             0      0.181187   1.97195e-15      0.212232        102540        103185        237400   3.61298e-15
     0.036036       288.302       288.658      0.136092       12.3462       3.74121             0       7.31347       1.23922             0       7.12395     -0.236766             0       11.3728             0             0      0.180739   1.97513e-15      0.214178        102537        103185        237967    3.6188e-15
    0.0365365        288.31       288.658      0.131221       11.8325       3.89241             0       7.40586       1.22792             0       6.51572     -0.709153             0        11.522             0             0      0.180288   1.97322e-15      0.216141        102535        103185        238425   3.61531e-15
     0.037037       288.317       288.659      0.126421       11.2973       4.03938             0       7.49786       1.21623             0       5.94443      -1.18709             0       11.6578             0             0      0.179844   1.97153e-15      0.218069        102532        103185        238875   3.61221e-15
    0.0375375       288.327        288.66      0.122494        10.494       4.13343             0       7.58499       1.19946             0       5.83551      -1.73445             0       11.6273             0             0      0.179499    1.9726e-15      0.219569        102530        103185        239244   3.61416e-15
     0.038038       288.336        288.66       0.11862       9.67869       4.22427             0       7.67115       1.18228             0       5.77303      -2.28187             0        11.582             0             0      0.179167   1.97403e-15      0.221013        102528        103185        239605    3.6168e-15
    0.0385385        288.35       288.661      0.115387       8.71759       4.27606             0       7.74559       1.15996             0       6.27513      -2.82993             0        11.358             0             0       0.17899   1.98003e-15       0.22178        102527        103186        239875   3.62779e-15
     0.039039       288.365       288.662        0.1122       7.74336       4.32675             0       7.81889       1.13722             0       6.82491      -3.37193             0       11.1189             0             0      0.178821   1.98616e-15      0.222515        102525        103187        240134   3.63902e-15
    0.0395395       288.381       288.663      0.109555        6.6139       4.36449             0        7.8789       1.10947             0       7.93823      -3.84217             0       10.6998             0             0      0.178741   1.99387e-15      0.222866        102525        103188        240267   3.65313e-15
      0.04004       288.397       288.663       0.10696       5.47183       4.39887             0       7.93774       1.08126             0       9.09402      -4.29933             0       10.2674             0             0      0.178673   2.00151e-15      0.223163        102524        103189        240393   3.66714e-15
    0.0405405       288.404       288.662       0.10493       4.18484       4.39454             0       7.98303       1.04771             0       10.7382      -4.60615             0       9.68087             0             0      0.178747   2.00844e-15      0.222841        102524        103190        240452   3.67984e-15
     0.041041       288.411       288.661       0.10292       2.90606       4.38133             0       8.02667       1.01371             0       12.4049      -4.89543             0       9.08478             0             0       0.17883   2.01539e-15      0.222477        102525        103192        240507   3.69258e-15
    0.0415415       288.405       288.657      0.101128       1.71906        4.2688             0       8.05188      0.974716             0       14.3242      -4.98836             0       8.38196             0             0      0.179022   2.02262e-15      0.221644        102527        103193        240516   3.70581e-15
     0.042042       288.397       288.652     0.0993659       0.55327       4.14809             0       8.07442      0.935159             0       16.2353      -5.06477             0       7.67533             0             0       0.17922   2.02957e-15      0.220782        102528        103195        240518   3.71855e-15
    0.0425425       288.375       288.646     0.0979308     -0.381296       3.93808             0       8.06775      0.889432             0       18.0562      -4.96112             0       6.92709             0             0      0.179494   2.03362e-15      0.219591        102530        103196        240450   3.72597e-15
     0.043043       288.351       288.641     0.0965739      -1.30536       3.72547             0       8.05852      0.843143             0       19.8441      -4.84534             0        6.1814             0             0      0.179781   2.03647e-15      0.218342        102532        103197        240384    3.7312e-15
    0.0435435       288.313       288.634     0.0960479      -2.11783        3.4853             0       8.02192      0.790879             0       21.2802      -4.60055             0       5.46286             0             0      0.180213   2.02659e-15      0.216466        102535        103199        240334    3.7131e-15
     0.044044       288.272       288.628     0.0955791      -2.92326       3.24464             0       7.98387      0.738014             0       22.6731      -4.35073             0       4.75005             0             0      0.180741   2.01176e-15      0.214168        102537        103200        240288   3.68592e-15
    0.0445445       288.203       288.622     0.0957041      -3.65571       2.99896             0       7.93069      0.678925             0       23.6198      -4.04869             0       4.09663             0             0      0.182275   1.94556e-15      0.207502        102539        103202        240286   3.56462e-15
     0.045045       288.134       288.616     0.0958153      -4.36933       2.75196             0       7.87595      0.619183             0       24.5307      -3.74664             0       3.44966             0             0      0.183865   1.87691e-15      0.200588        102541        103203        240281   3.43886e-15
    0.0455455       288.067       288.613     0.0957877      -4.89265       2.49153             0       7.80536      0.552846             0       25.0805      -3.44439             0       2.86804             0             0       0.18603   1.78363e-15      0.191175        102543        103204        240248   3.26795e-15