#           y             T         TMean   TPrime2Mean           U_x           U_y           U_z       UMean_x       UMean_y       UMean_z UPrime2Mea... UPrime2Mea... UPrime2Mea... UPrime2Mea... UPrime2Mea... UPrime2Mea...            O2           H2O          C3H8             p         pMean   pPrime2Mean           CO2
  1.11022e-19       288.208       288.567     0.0974512       14.7381  -4.21467e-17             0       12.7298   1.05379e-18             0       35.8485   1.22846e-18             0   6.17075e-18             0             0      0.190199   2.35194e-15      0.173047        102455        103167        283083    4.3092e-15
  0.000500501       288.205       288.574     0.0963497        14.566     -0.190002             0       12.6929    0.00475059             0        35.352    0.00553802             0     0.0278184             0             0      0.191735   2.32213e-15       0.16637        102455        103167        283086   4.25458e-15
     0.001001       288.203        288.58     0.0952513       14.3938     -0.379998             0        12.656    0.00950183             0       34.8539     0.0111609             0     0.0557155             0             0      0.193271   2.29231e-15      0.159693        102455        103167        283090   4.19994e-15
    0.0015015       288.276       288.588     0.0957338       14.1748     -0.566824             0       12.5677     0.0145762             0       33.5008     0.0591206             0      0.122883             0             0      0.194866   2.25659e-15      0.152755        102454        103166        283079    4.1345e-15
     0.002002       288.349       288.596     0.0962325       13.9565     -0.753637             0       12.4794     0.0196485             0       32.1468      0.107153             0      0.190229             0             0      0.196454     2.221e-15      0.145854        102454        103166        283068   4.06929e-15
    0.0025025       288.534       288.598      0.100782       13.9032     -0.937196             0       12.3922     0.0241952             0       30.5742      0.173242             0      0.302101             0             0      0.195903   2.21634e-15      0.148248        102454        103166        283039   4.06074e-15
     0.003003       288.719       288.599      0.105338       13.8498      -1.12078             0       12.3053     0.0287329             0       29.0035      0.239201             0      0.414229             0             0      0.195347   2.21169e-15      0.150664        102453        103166        283011   4.05223e-15
    0.0035035         288.9         288.6      0.111121       13.7952      -1.30899             0       12.2476     0.0317827             0       27.7581      0.283532             0      0.568951             0             0      0.193954   2.20925e-15       0.15672        102453        103166        282998   4.04776e-15
     0.004004       289.081         288.6      0.116879       13.7404      -1.49703             0       12.1902     0.0348222             0       26.5148       0.32768             0      0.723969             0             0      0.192565   2.20677e-15       0.16276        102452        103165        282985   4.04321e-15
    0.0045045       289.166       288.602      0.119676       13.6556      -1.66334             0       12.1497     0.0365871             0       25.5298      0.349064             0      0.915845             0             0      0.191641   2.19939e-15      0.166777        102452        103165        282939   4.02969e-15
   0.00500501       289.251       288.605       0.12239       13.5706      -1.82935             0       12.1094     0.0383477             0       24.5462      0.370335             0         1.108             0             0      0.190727   2.19201e-15      0.170754        102451        103165        282894   4.01618e-15
   0.00550551       289.265       288.613      0.116987       13.4611      -1.96605             0       12.0728     0.0396719             0       23.6988      0.380276             0       1.32827             0             0      0.190743   2.18505e-15      0.170683        102450        103165        282830   4.00342e-15
   0.00600601       289.279        288.62      0.111526       13.3506      -2.10259             0       12.0362     0.0409889             0       22.8534       0.39004             0       1.54881             0             0      0.190766   2.17809e-15      0.170583        102449        103164        282766   3.99067e-15
   0.00650651       289.273       288.631      0.101261       13.1493      -2.22666             0       12.0034     0.0417131             0       22.1716      0.385119             0       1.79222             0             0      0.191331   2.17179e-15      0.168126        102448        103164        282679   3.97913e-15
   0.00700701       289.267       288.642     0.0910476       12.9468      -2.35073             0       11.9707      0.042421             0       21.4929       0.37987             0       2.03598             0             0      0.191899   2.16548e-15      0.165655        102446        103164        282592   3.96756e-15
   0.00750751       289.254       288.649     0.0844025       12.6557      -2.47544             0       11.9459     0.0419825             0       21.0354      0.351427             0       2.30464             0             0      0.192709   2.15826e-15      0.162135        102445        103163        282482   3.95433e-15
   0.00800801       289.241       288.656     0.0778216       12.3638      -2.60033             0       11.9211      0.041526             0       20.5811      0.322677             0       2.57376             0             0       0.19352   2.15094e-15      0.158609        102444        103163        282370   3.94092e-15
   0.00850851       289.227       288.658      0.075187       12.0235      -2.73615             0       11.9014      0.039961             0       20.3178       0.27509             0       2.87078             0             0      0.194429   2.13792e-15      0.154657        102443        103163        282238   3.91706e-15
   0.00900901       289.212       288.661     0.0725746       11.6832      -2.87215             0       11.8817     0.0383819             0        20.056      0.227388             0       3.16833             0             0      0.195343   2.12462e-15      0.150683        102442        103163        282106    3.8927e-15
   0.00950951        289.19       288.662      0.071176       11.3465      -3.01769             0       11.8602     0.0360349             0       19.8778      0.173438             0       3.49475             0             0      0.196527   2.09621e-15      0.145534        102441        103162        281960   3.84064e-15
      0.01001       289.168       288.663     0.0697888       11.0109      -3.16328             0       11.8385     0.0336734             0       19.6994      0.119455             0       3.82183             0             0      0.197714   2.06743e-15      0.140375        102440        103162        281814   3.78792e-15
    0.0105105       289.142       288.663     0.0689628       10.7328      -3.31145             0       11.8107     0.0306043             0       19.5139     0.0638793             0       4.18138             0             0       0.19901   2.02087e-15      0.134738        102439        103162        281665   3.70261e-15
     0.011011       289.115       288.663     0.0681461       10.4566      -3.45958             0       11.7826     0.0275151             0       19.3269     0.0081993             0       4.54178             0             0      0.200302   1.97418e-15       0.12912        102439        103161        281516   3.61708e-15
    0.0115115       289.091       288.663     0.0677409       10.2676      -3.60557             0       11.7466     0.0235271             0       19.0763    -0.0521013             0       4.93982             0             0       0.20139   1.92215e-15       0.12439        102438        103161        281353   3.52174e-15
     0.012012       289.068       288.662     0.0673403        10.081      -3.75145             0       11.7104       0.01952             0       18.8228     -0.112352             0       5.33872             0             0      0.202471   1.87031e-15      0.119693        102437        103161        281191   3.42677e-15
    0.0125125        289.05       288.661     0.0671237       9.98839      -3.89262             0       11.6643     0.0147374             0       18.4472     -0.170578             0        5.7723             0             0      0.203244   1.82643e-15      0.116333        102437        103160        281072   3.34636e-15
     0.013013       289.032       288.661      0.066902       9.89806      -4.03367             0       11.6177    0.00997968             0       18.0658     -0.227639             0       6.20604             0             0      0.204007   1.78292e-15      0.113013        102436        103160        280953   3.26664e-15
    0.0135135       289.023       288.661     0.0664857       9.89301      -4.17039             0       11.5547    0.00615176             0       17.4652     -0.241056             0        6.6451             0             0      0.204422    1.7535e-15      0.111211        102436        103159        280843   3.21273e-15
     0.014014       289.013       288.661       0.06607       9.89002      -4.30716             0        11.491    0.00242142             0       16.8562     -0.251976             0       7.08288             0             0      0.204821   1.72475e-15      0.109475        102436        103159        280733   3.16007e-15
    0.0145145       289.016       288.662     0.0656788       9.95802      -4.44589             0       11.4028    0.00207804             0       15.9596     -0.176234             0       7.47581             0             0       0.20469   1.71967e-15      0.110043        102436        103158        280630   3.15076e-15
     0.015015       289.019       288.663     0.0652933       10.0275       -4.5848             0       11.3139    0.00182902             0       15.0563    -0.0986816             0       7.86675             0             0       0.20454   1.71556e-15      0.110696        102436        103158        280528   3.14322e-15
    0.0155155       289.036       288.664     0.0650886        10.145      -4.72936             0       11.1998    0.00463086             0       13.9337     0.0374294             0       8.19355             0             0       0.20375   1.74265e-15       0.11413        102436        103157        280479   3.19286e-15
     0.016016       289.053       288.665     0.0648827       10.2633      -4.87388             0       11.0852    0.00741628             0       12.8093      0.172749             0       8.51902             0             0      0.202948   1.77051e-15      0.117617        102436        103157        280430    3.2439e-15
    0.0165165       289.079       288.666     0.0646396       10.4057      -5.01695             0        10.953    0.00970508             0       11.6289      0.284131             0       8.80395             0             0      0.201768   1.82165e-15       0.12275        102436        103157        280371    3.3376e-15
     0.017017       289.104       288.667     0.0644007       10.5485      -5.15965             0       10.8205     0.0119019             0       10.4514      0.393195             0       9.08759             0             0       0.20059   1.87291e-15      0.127871        102436        103156        280311   3.43152e-15
    0.0175175       289.126       288.668       0.06428       10.7028      -5.29161             0       10.6772     0.0114855             0       9.35935       0.43643             0       9.33451             0             0      0.199488   1.92758e-15      0.132659        102436        103156        280227   3.53168e-15
     0.018018       289.148       288.669     0.0641664       10.8577      -5.42287             0       10.5336     0.0110064             0       8.27414       0.47791             0       9.57874             0             0      0.198401   1.98168e-15      0.137385        102435        103156        280141   3.63081e-15
    0.0185185        289.16       288.671     0.0642429       11.0245      -5.53561             0        10.382    0.00884731             0       7.37299       0.47237             0       9.75056             0             0      0.197699   2.02073e-15      0.140438        102435        103156        280022   3.70235e-15
     0.019019       289.171       288.672     0.0643154       11.1918      -5.64725             0       10.2304    0.00664333             0       6.48212      0.465791             0       9.91865             0             0      0.197011   2.05913e-15      0.143432        102435        103155        279901   3.77271e-15
    0.0195195       289.174       288.674      0.064288       11.3714      -5.73078             0       10.0758    0.00330206             0       5.85161      0.432932             0       9.99224             0             0       0.19666   2.08143e-15      0.144959        102435        103155        279746   3.81356e-15
      0.02002       289.177       288.676     0.0642353       11.5512      -5.81269             0       9.92143  -0.000114782             0       5.23297      0.399229             0       10.0622             0             0      0.196315   2.10336e-15      0.146457        102434        103155        279592   3.85375e-15
    0.0205205       289.176       288.679     0.0635729       11.7369      -5.85576             0       9.77085   -0.00534537             0       4.89912       0.34529             0       10.0464             0             0      0.196129   2.11659e-15      0.147263        102434        103155        279455   3.87799e-15
     0.021021       289.174       288.682     0.0628805       11.9225      -5.89676             0       9.62051    -0.0106285             0        4.5762      0.291055             0       10.0271             0             0      0.195947   2.12962e-15      0.148058        102433        103155        279319   3.90185e-15
    0.0215215       289.172       288.687     0.0615038       12.1069       -5.8905             0       9.47567    -0.0171103             0       4.50235      0.230093             0       9.92764             0             0      0.195826   2.13794e-15      0.148583        102433        103155        279218    3.9171e-15
     0.022022       289.169       288.691     0.0601127       12.2907      -5.88194             0       9.33096    -0.0235662             0       4.43739      0.169745             0       9.82435             0             0      0.195706   2.14614e-15      0.149103        102433        103155        279116   3.93213e-15
    0.0225225       289.167       288.696     0.0584083       12.4638      -5.82332             0       9.18925    -0.0294596             0       4.56562      0.122744             0       9.63757             0             0      0.195612   2.15168e-15      0.149513        102432        103156        279013   3.94228e-15
     0.023023       289.164       288.701     0.0567148       12.6359      -5.76236             0       9.04766     -0.035294             0       4.70132      0.076718             0       9.44698             0             0      0.195519   2.15711e-15      0.149919        102432        103156        278910   3.95223e-15
    0.0235235       289.163       288.705     0.0552456       12.7875      -5.65299             0       8.90885    -0.0399058             0       4.99193     0.0508878             0       9.17748             0             0      0.195447   2.16041e-15      0.150228        102431        103156        278794   3.95827e-15
     0.024024       289.163        288.71     0.0538061       12.9376      -5.54144             0       8.77035    -0.0444746             0       5.28929     0.0258795             0        8.9046             0             0      0.195377   2.16365e-15      0.150535        102430        103156        278678   3.96421e-15
    0.0245245       289.162       288.714     0.0529554       13.0585       -5.3867             0       8.63819    -0.0481906             0       5.72066     0.0171736             0       8.56475             0             0      0.195319   2.16578e-15      0.150787        102430        103157        278579    3.9681e-15
     0.025025       289.162       288.718     0.0521189       13.1775      -5.23008             0       8.50666    -0.0518739             0       6.15699    0.00919883             0       8.22222             0             0      0.195262   2.16785e-15      0.151033        102429        103157        278478    3.9719e-15
    0.0255255       289.162       288.723     0.0515521       13.2606      -5.03796             0       8.38716     -0.054934             0       6.68748     0.0151163             0       7.82865             0             0      0.195229   2.16889e-15      0.151178        102428        103158        278347   3.97382e-15
     0.026026       289.161       288.727     0.0509688       13.3416      -4.84438             0       8.26859    -0.0579566             0       7.21922     0.0216216             0       7.43354             0             0      0.195199   2.16984e-15       0.15131        102427        103158        278214   3.97555e-15
    0.0265265        289.16       288.733     0.0500853       13.3838      -4.62442             0       8.16701    -0.0602968             0       7.77395      0.038844             0       7.01015             0             0      0.195217   2.16894e-15      0.151231        102425        103159        278058   3.97389e-15
     0.027027       289.159       288.739     0.0491696       13.4238      -4.40352             0        8.0665    -0.0625993             0       8.32606     0.0564997             0       6.58647             0             0      0.195239   2.16786e-15      0.151135        102424        103160        277901   3.97193e-15
    0.0275275       289.159       288.746     0.0476911       13.4257      -4.16604             0       7.98462    -0.0642436             0       8.83235     0.0817461             0       6.15769             0             0      0.195328   2.16385e-15       0.15075        102423        103160        277718   3.96458e-15
     0.028028       289.158       288.753      0.046238       13.4255      -3.92807             0       7.90385    -0.0658251             0       9.33231      0.107357             0       5.72965             0             0      0.195422   2.15958e-15      0.150341        102422        103160        277535   3.95675e-15
    0.0285285       289.158       288.762     0.0452113       13.3903      -3.68196             0       7.84186    -0.0663476             0       9.72557      0.139116             0       5.31405             0             0      0.195608   2.15089e-15      0.149531        102421        103161        277343   3.94083e-15
     0.029029       289.157        288.77     0.0442631       13.3532      -3.43573             0       7.78102    -0.0667386             0       10.1086      0.170754             0       4.90007             0             0      0.195804   2.14169e-15      0.148677        102420        103161        277155   3.92398e-15
    0.0295295       289.154       288.775     0.0445894       13.2861      -3.18757             0       7.73896    -0.0649935             0       10.3258      0.200419             0       4.51254             0             0      0.196168   2.12439e-15      0.147094        102420        103162        277020   3.89227e-15
      0.03003        289.15       288.781     0.0449417       13.2174      -2.93978             0       7.69799    -0.0630951             0       10.5311      0.229282             0        4.1275             0             0      0.196553   2.10605e-15      0.145422        102419        103162        276890   3.85867e-15
    0.0305305       289.142       288.783     0.0456989       13.1252      -2.69782             0       7.67404    -0.0587969             0       10.5496      0.245561             0       3.78148             0             0      0.197258   2.07151e-15      0.142356        102418        103163        276837    3.7954e-15
     0.031031       289.132       288.785     0.0464257       13.0318       -2.4569             0        7.6509    -0.0544126             0       10.5588      0.260919             0        3.4386             0             0      0.197998   2.03512e-15      0.139138        102417        103163        276785   3.72872e-15
    0.0315315        289.11       288.784     0.0466905       12.9218      -2.23164             0       7.64009    -0.0487259             0        10.429      0.262336             0       3.14332             0             0      0.199269   1.97057e-15      0.133613        102416        103163        276766   3.61045e-15
     0.032032       289.087       288.782     0.0469167        12.811       -2.0079             0       7.62965    -0.0430388             0       10.2963      0.263218             0       2.85133             0             0      0.200581   1.90376e-15      0.127908        102415        103164        276752   3.48805e-15
    0.0325325       289.049       288.778     0.0465777       12.6889      -1.80618             0       7.62466    -0.0373472             0       10.1208      0.256261             0       2.60763             0             0      0.202494   1.80397e-15      0.119592        102415        103164        276812   3.30521e-15
     0.033033       289.009       288.775     0.0462074       12.5667      -1.60655             0       7.61963    -0.0316994             0       9.94823      0.249099             0       2.36686             0             0      0.204435   1.70241e-15      0.111151        102414        103164        276878   3.11913e-15
    0.0335335       288.957        288.77     0.0453937       12.4435      -1.43643             0       7.61417    -0.0266729             0       9.81556      0.239019             0       2.16738             0             0      0.206779   1.57593e-15      0.100961        102413        103165        277009    2.8874e-15
     0.034034       288.905       288.764     0.0445445        12.321      -1.26867             0       7.60854    -0.0216969             0       9.68741      0.228864             0       1.97015             0             0      0.209123    1.4493e-15     0.0907688        102413        103165        277143   2.65539e-15
    0.0345345       288.851       288.757     0.0432084       12.2083      -1.13334             0       7.60063     -0.017414             0       9.62127      0.217669             0       1.80377             0             0      0.211475    1.3207e-15     0.0805433        102412        103165        277310   2.41977e-15
     0.035035       288.797        288.75      0.041848       12.0967      -1.00028             0       7.59266    -0.0131828             0        9.5578      0.206489             0       1.63907             0             0      0.213783   1.19453e-15     0.0705101        102412        103165        277481   2.18861e-15
    0.0355355       288.756       288.742     0.0401652       11.9997      -0.89732             0       7.58405   -0.00963968             0       9.52982      0.195511             0       1.49681             0             0      0.215503   1.10066e-15     0.0630309        102412        103166        277711   2.01662e-15
     0.036036       288.716       288.734     0.0385007       11.9043     -0.796591             0       7.57555   -0.00614161             0        9.5021       0.18459             0       1.35591             0             0      0.217202    1.0079e-15     0.0556446        102412        103166        277941   1.84666e-15
    0.0365365        288.68       288.725     0.0370736       11.8283     -0.724632             0       7.56859   -0.00322452             0       9.47774      0.174421             0       1.23263             0             0      0.218625   9.29471e-16     0.0494544        102412        103166        278181   1.70296e-15
     0.037037       288.646       288.717     0.0357038       11.7537     -0.654349             0        7.5618  -0.000342256             0       9.45259      0.164312             0       1.11057             0             0      0.220032   8.51905e-16     0.0433373        102411        103166        278421   1.56085e-15
    0.0375375       288.616       288.709      0.035053        11.697     -0.605055             0       7.55725    0.00210416             0       9.41762      0.154961             0       1.00368             0             0      0.221229   7.85156e-16     0.0381347        102411        103166        278664   1.43855e-15
     0.038038       288.586       288.701     0.0344602       11.6415      -0.55685             0       7.55283     0.0045203             0       9.38207      0.145674             0      0.897939             0             0      0.222405   7.19236e-16     0.0330207        102411        103166        278909   1.31777e-15
    0.0385385       288.563       288.696     0.0345736       11.6004     -0.521891             0       7.55009    0.00656837             0       9.33927      0.137175             0      0.806124             0             0      0.223334   6.63384e-16     0.0289828        102411        103166        279170   1.21544e-15
     0.039039       288.539        288.69     0.0347138         11.56     -0.487416             0       7.54741    0.00858933             0       9.29642      0.128758             0      0.715371             0             0      0.224254   6.07594e-16     0.0249806        102411        103166        279432   1.11323e-15
    0.0395395       288.518       288.687     0.0351711       11.5272     -0.458661             0       7.54547     0.0102899             0       9.25295       0.12131             0      0.637171             0             0      0.225078   5.52532e-16     0.0214001        102410        103166        279702   1.01234e-15
      0.04004       288.497       288.684     0.0356272       11.4942     -0.429805             0       7.54352     0.0119648             0       9.20974      0.113966             0      0.559944             0             0      0.225884   4.97868e-16     0.0178958        102410        103166        279975   9.12186e-16
    0.0405405       288.482       288.681     0.0360689       11.4571     -0.399796             0       7.54158     0.0133432             0       9.16948      0.107826             0      0.493911             0             0      0.226488   4.47771e-16     0.0152678        102410        103166        280269   8.20399e-16
     0.041041       288.466       288.679     0.0364967       11.4183      -0.36927             0       7.53959     0.0146936             0       9.12947      0.101779             0      0.428772             0             0      0.227096   3.96476e-16     0.0126277        102410        103167        280563   7.26418e-16
    0.0415415       288.449       288.678     0.0367683       11.3598     -0.332964             0       7.53714     0.0157304             0       9.09219     0.0967722             0      0.373657             0             0      0.227734   3.31776e-16    0.00985138        102409        103167        280852   6.07875e-16
     0.042042       288.433       288.677     0.0370299       11.2975      -0.29597             0       7.53462     0.0167306             0       9.05502     0.0918326             0      0.319375             0             0      0.228359   2.67342e-16    0.00713457        102409        103167        281139    4.8982e-16
    0.0425425       288.421       288.677      0.037182       11.1928     -0.251485             0       7.53124     0.0173334             0       9.01906     0.0876218             0      0.274174             0             0      0.228835   2.05814e-16    0.00506662        102408        103167        281396   3.77089e-16
     0.043043       288.409       288.677     0.0373263        11.082     -0.206566             0       7.52775     0.0178835             0       8.98302     0.0834171             0      0.229742             0             0       0.22929   1.46083e-16    0.00308827        102408        103167        281654   2.67652e-16
    0.0435435       288.403       288.677     0.0373861       10.9069     -0.157046             0       7.52307     0.0178743             0       8.94616     0.0792766             0      0.193482             0             0      0.229526   1.05456e-16    0.00206219        102408        103167        281914   1.93215e-16
     0.044044       288.398       288.676     0.0374406       10.7244     -0.107872             0       7.51812     0.0177889             0       8.90949     0.0750968             0      0.157927             0             0      0.229749   6.65264e-17    0.00109059        102407        103167        282171   1.21889e-16
    0.0445445       288.395       288.676     0.0374395       10.4652    -0.0622747             0        7.5104      0.016914             0       8.87476      0.070508             0      0.129683             0             0      0.229843   4.51914e-17   0.000683617        102407        103167        282406    8.2799e-17
     0.045045       288.394       288.676     0.0374395        10.199    -0.0179034             0       7.50166     0.0159409             0       8.83723     0.0659148             0      0.102071             0             0      0.229931    2.4973e-17    0.00030179        102406        103167        282637   4.57552e-17
    0.0455455       288.393       288.677     0.0374496        9.8624     0.0140755             0       7.48264      0.013974             0       8.77129      0.061276             0     0.0808566             0             0       0.22996   1.60452e-17   0.000174261        102406        103167        282821   2.93978e-17