#           y             T         TMean   TPrime2Mean           U_x           U_y           U_z       UMean_x       UMean_y       UMean_z UPrime2Mea... UPrime2Mea... UPrime2Mea... UPrime2Mea... UPrime2Mea... UPrime2Mea...            O2           H2O          C3H8             p         pMean   pPrime2Mean           CO2
            0       287.794       288.017     0.0621963       24.4219             0             0       22.6087             0             0       5.70597             0             0             0             0             0          0.23   2.52452e-21    5.5409e-09        102074        103159        253665   4.62538e-21
  0.000500501       287.794       288.017     0.0622055       24.4239      -0.18318             0       22.6107    0.00854432             0        5.7217      0.136652             0     0.0436399             0             0          0.23   3.12417e-20    1.0354e-07        102075        103159        253213   5.72406e-20
     0.001001       287.794       288.017     0.0622143        24.426     -0.366398             0       22.6127     0.0170956             0       5.73758      0.273311             0     0.0873863             0             0          0.23   6.42668e-20   2.09552e-07        102076        103159        252760   1.17749e-19
    0.0015015       287.794       288.017     0.0620806       24.4478      -0.56885             0       22.6087     0.0291371             0       5.82928      0.413056             0      0.184305             0             0      0.229999   2.24698e-18   4.31382e-06        102080        103159        251478   4.11689e-18
     0.002002       287.794       288.017     0.0619465       24.4696     -0.771643             0       22.6047     0.0411592             0       5.92126      0.552939             0      0.281694             0             0      0.229998   4.80508e-18   8.70414e-06        102085        103159        250193   8.80381e-18
    0.0025025       287.794       288.017     0.0617487       24.4887      -1.05904             0       22.6056     0.0483618             0       6.08532      0.727342             0      0.496106             0             0      0.229981   1.00835e-16   8.43231e-05        102091        103159        248220   1.84748e-16
     0.003003       287.795       288.017     0.0615516       24.5079      -1.34696             0       22.6063     0.0556433             0       6.25093      0.901764             0      0.711276             0             0      0.229962   2.23677e-16   0.000166529        102098        103159        246244   4.09818e-16
    0.0035035        287.81       288.017     0.0614752       24.5594      -1.72245             0       22.5967     0.0759975             0        6.6724       1.07952             0       1.05193             0             0      0.229692   4.78837e-15       0.00134        102107        103159        243669   8.77318e-15
     0.004004       287.828       288.018      0.061466       24.6103      -2.10001             0       22.5871     0.0962623             0       7.09643       1.25868             0       1.39646             0             0      0.229406   1.03384e-14    0.00258369        102116        103158        241091   1.89419e-14
    0.0045045       288.131       288.026     0.0697874       24.5854      -2.73341             0       22.5902       0.10544             0       7.83621       1.61247             0       2.22164             0             0      0.227117   1.38072e-13     0.0125352        102125        103158        238154   2.52974e-13
   0.00500501       288.458       288.035     0.0816566       24.5591      -3.36985             0        22.593      0.114853             0       8.58498       1.96561             0       3.05451             0             0      0.224761   2.84993e-13     0.0227785        102134        103157        235216   5.22161e-13
   0.00550551       291.065       288.098      0.444764       24.4055      -4.30689             0        22.552      0.147511             0        10.223        2.2535             0       4.64882             0             0      0.215759   2.33142e-12     0.0619168        102143        103155        232240    4.2716e-12
   0.00600601       293.775       288.164      0.863268       24.2502      -5.24749             0        22.511      0.179541             0       11.8575       2.54871             0       6.27284             0             0       0.20666   4.61203e-12       0.10148        102152        103154        229271   8.45011e-12
   0.00650651       304.999       288.395       5.84282       23.9523      -6.48156             0       22.4726      0.159817             0       13.2036       3.44633             0       10.3431             0             0      0.189506   2.61741e-11      0.176062        102158        103150        226781   4.79559e-11
   0.00700701        316.43        288.63       11.1923       23.6581       -7.7135             0       22.4346      0.141034             0        14.521       4.33895             0        14.435             0             0      0.172378   4.95018e-11      0.250532        102163        103145        224299   9.06965e-11
   0.00750751       342.469       289.183       42.5961       23.6228      -8.79566             0       22.4257      0.188542             0       13.8083         4.879             0       20.0547             0             0      0.157077   1.97176e-10      0.317055        102167        103139        222275   3.61264e-10
   0.00800801       368.641       289.753       76.6667       23.5885      -9.87102             0       22.4065      0.234208             0       13.0817       5.37866             0       25.6848             0             0      0.141908      3.53e-10      0.383007        102171        103133        220251   6.46763e-10
   0.00850851       403.066       291.362       274.753       23.6146      -10.5274             0       21.7483       0.16664             0       11.5064       3.39384             0       31.9561             0             0      0.134816   1.01004e-09      0.413845        102174        103125        218158   1.85058e-09
   0.00900901       437.177        292.97       473.635       23.6461      -11.1702             0       21.0884     0.0995419             0       9.93213        1.3942             0       38.1852             0             0       0.12777   1.68239e-09      0.444479        102177        103117        216040   3.08245e-09
   0.00950951       454.142       294.513       715.969       23.9735      -11.0713             0       20.3395     0.0581344             0       8.41568      -1.41391             0       42.1187             0             0      0.123286   3.19018e-09      0.463975        102189        103113        212585   5.84501e-09
      0.01001       470.798       296.037       956.298       24.2965      -10.9504             0       19.5846     0.0200994             0       6.92616      -4.19021             0        45.948             0             0      0.118753   4.78394e-09      0.483684        102200        103109        209104   8.76506e-09
    0.0105105        472.25       296.583       1098.34       24.4001      -9.75167             0       18.5342      0.147322             0       6.75667      -5.40781             0       44.6756             0             0      0.111819   1.05899e-08      0.513831        102225        103115        204344   1.94027e-08
     0.011011       473.731       297.124       1239.97       24.4892      -8.55065             0       17.4686      0.273722             0        6.6118      -6.58869             0       43.3201             0             0      0.104879   1.67861e-08      0.544005        102249        103120        199570   3.07553e-08
    0.0115115       476.507       297.444       1363.09       23.9339      -7.24755             0        15.727      0.363609             0       7.56109      -6.13796             0       38.2691             0             0     0.0976643   4.03303e-08      0.575372        102269        103129        194193   7.38926e-08
     0.012012       479.656       297.764       1486.79        23.357      -5.94478             0       13.9875      0.451428             0       8.48648      -5.66193             0       33.1789             0             0     0.0905746   6.77838e-08      0.606196        102288        103138        188828   1.24193e-07
    0.0125125       497.955       298.075       1633.94       21.9033      -4.65527             0       12.3372      0.455161             0        8.4399      -4.15731             0        26.495             0             0     0.0885653   2.54218e-07      0.614931        102309        103145        183991   4.65775e-07
     0.013013       516.148       298.376       1777.25        20.438      -3.38176             0       10.7122       0.45678             0       8.37091      -2.66146             0       19.8845             0             0     0.0865475   4.38493e-07      0.623702        102329        103152        179191   8.03401e-07
    0.0135135       530.364       298.313       1776.85       18.5324      -2.70771             0       10.0365      0.379192             0       7.46262      -1.49463             0       16.0251             0             0      0.084211   5.41871e-07      0.633859        102345        103156        175797   9.92809e-07
     0.014014       543.889       298.234       1770.65       16.6584      -2.03678             0       9.38638       0.30424             0       6.55674     -0.354203             0       12.2256             0             0     0.0816906   6.37963e-07      0.644817        102361        103159        172429   1.16887e-06
    0.0145145       533.456        297.62       1563.21       15.8793      -1.47461             0       9.62056      0.320797             0       5.73477     -0.130347             0       10.5087             0             0     0.0727839   4.81116e-07      0.683543        102373        103161        169947   8.81495e-07
     0.015015       522.948       297.011       1356.99       15.1169     -0.898026             0       9.85225      0.336054             0       4.93778     0.0888642             0       8.82729             0             0     0.0639299   3.25277e-07      0.722041        102384        103162        167496   5.95968e-07
    0.0155155       510.035       296.556       1190.12       14.8976      0.144499             0       10.0029      0.309268             0       4.94819       0.15789             0       8.29431             0             0     0.0567784   2.01992e-07      0.753135        102399        103162        166032   3.70087e-07
     0.016016       496.669       296.079       1021.59        14.656       1.16663             0       10.1706      0.279989             0       5.03183       0.19438             0       7.79919             0             0     0.0499512   8.15295e-08       0.78282        102414        103162        164587   1.49377e-07
    0.0165165       469.587       294.933       802.694       13.7392       1.57191             0       10.8513      0.175322             0       7.33061     -0.753349             0       8.44927             0             0     0.0529362   4.64508e-08      0.769842        102427        103161        163726   8.51065e-08
     0.017017       442.048        293.77       583.713       12.8541       1.95873             0       11.5967     0.0659149             0       9.65175      -1.71964             0       9.08784             0             0     0.0564817   1.23884e-08      0.754427        102440        103160        162866   2.26979e-08
    0.0175175       401.512       292.122       362.383        12.866       1.82104             0        14.181     -0.178162             0       12.6082       -3.2133             0       9.39935             0             0     0.0759486   7.20181e-09      0.669789        102450        103160        162000   1.31951e-08
     0.018018       361.478       290.502       146.671       12.9776       1.68014             0       16.7606     -0.413914             0       15.4923      -4.67013             0       9.71536             0             0      0.095772   2.16639e-09        0.5836        102460        103160        161134   3.96923e-09
    0.0185185       334.896       289.636       81.3967       15.7564       1.45336             0       19.2147     -0.426746             0       16.4367       -5.1408             0       10.1518             0             0      0.125141   1.17952e-09      0.455908        102468        103159        160226    2.1611e-09
     0.019019       308.984       288.791       18.2764       18.5391       1.23124             0       21.6031     -0.436968             0       17.3302      -5.58266             0       10.5693             0             0      0.154248   2.26055e-10      0.329355        102477        103158        159351   4.14174e-10
    0.0195195       300.063       288.489       9.69536       21.4183       1.12736             0       22.3265     -0.381116             0       16.9361      -5.29482             0       10.5091             0             0      0.176723   1.18348e-10      0.231639        102490        103158        159269   2.16836e-10
      0.02002       291.436       288.197       1.43122       24.2362       1.04104             0       23.0323     -0.326508             0       16.5348      -5.00484             0       10.4439             0             0      0.198747    1.4666e-11      0.135881        102502        103159        159206   2.68709e-11
    0.0205205        289.89       288.116      0.772411       25.5852       1.37603             0       23.3175     -0.301752             0       15.9612      -4.66353             0       10.2552             0             0      0.209972   7.56463e-12     0.0870798        102511        103159        159577   1.38598e-11
     0.021021         288.4       288.039      0.139504       26.8965       1.70853             0       23.5872      -0.27306             0       15.3983       -4.3067             0       10.1104             0             0      0.220878   7.46119e-13     0.0396602        102520        103158        159948   1.36703e-12
    0.0215215       288.184       288.026      0.097327       27.3479       1.98448             0       23.5046     -0.154581             0       15.0769      -3.59574             0       10.9653             0             0      0.224537   3.80136e-13     0.0237543        102523        103157        160312    6.9648e-13
     0.022022       287.975       288.015     0.0568189       27.7896        2.2552             0       23.3988    -0.0355187             0       14.7762      -2.83417             0       11.8524             0             0      0.228064   2.96201e-14    0.00841524        102526        103155        160686   5.42695e-14
    0.0225225       287.947       288.034     0.0525618       28.0205       2.41249             0        22.791     0.0962194             0       14.9236     -0.972765             0       13.4391             0             0       0.22876   1.51619e-14    0.00539163        102524        103152        161274   2.77794e-14
     0.023023       287.921       288.053     0.0484307       28.2191       2.56155             0        22.132      0.234552             0       15.1754      0.954023             0       15.0354             0             0      0.229411   1.34199e-15    0.00256246        102523        103149        161862   2.45877e-15
    0.0235235       287.927       288.096     0.0469124       27.7468          2.54             0        20.409      0.509645             0       17.5906       4.23673             0       16.8319             0             0      0.229134   7.59455e-16    0.00376595        102516        103145        162432   1.39146e-15
     0.024024       287.935       288.138     0.0457315       27.1698       2.49194             0       18.6208       0.77866             0       20.3128       7.45088             0       18.6726             0             0      0.228817   2.07048e-16    0.00514522        102509        103140        163025   3.79351e-16
    0.0245245       287.962       288.195     0.0512411       24.5132       1.91784             0       15.5384      0.927109             0       29.1224       9.30528             0       21.3918             0             0      0.227698   2.52133e-16     0.0100108        102502        103135        164070   4.61954e-16
     0.025025        287.99       288.251     0.0570092       21.8265       1.31968             0       12.4639       1.06074             0       38.1952       10.9681             0       24.1716             0             0      0.226571   2.98884e-16     0.0149069        102495        103130        165103   5.47612e-16
    0.0255255       288.037       288.299     0.0676869        18.569      0.264254             0       9.53969      0.912795             0       52.2709       8.99077             0       28.1045             0             0      0.225311    3.7731e-16      0.020385        102492        103123        165915   6.91301e-16
     0.026026       288.083       288.346       0.07823       15.3371     -0.785347             0       6.67478      0.757777             0        66.103        6.9424             0       32.0326             0             0      0.224112   4.51582e-16     0.0255985        102489        103116        166712   8.27382e-16
    0.0265265       288.117       288.375     0.0863175       12.5744      -1.72881             0       4.89027      0.473796             0       75.4933       3.59844             0       35.8725             0             0      0.224022   4.50133e-16     0.0259897        102486        103108        167217   8.24728e-16
     0.027027        288.15       288.403     0.0941247       9.78219      -2.65601             0       3.14229      0.185057             0       84.3256      0.253709             0       39.6677             0             0      0.223966   4.46788e-16     0.0262336        102483        103100        167736   8.18598e-16
    0.0275275       288.161       288.421     0.0970218       6.47341       -3.2982             0       2.03438     -0.187028             0       83.3831      -3.10461             0       42.6794             0             0      0.224503   4.10201e-16     0.0238996        102484        103093        168484   7.51565e-16
     0.028028       288.171       288.438     0.0997527       3.15038      -3.92078             0      0.946118     -0.560595             0       82.0661      -6.43904             0       45.6009             0             0      0.225001   3.76142e-16     0.0217368        102485        103085        169257   6.89162e-16
    0.0285285       288.166       288.451     0.0996814     -0.412904      -4.21291             0      0.188909     -0.959138             0       74.4353      -9.37066             0       47.0002             0             0      0.224834   3.84672e-16     0.0224625        102496        103079        170452    7.0479e-16
     0.029029       288.159       288.464     0.0995194      -3.93263        -4.476             0     -0.561204      -1.35553             0        66.675      -12.2017             0       48.3046             0             0      0.224579   3.97043e-16     0.0235711        102507        103072        171674   7.27456e-16
    0.0295295       288.124       288.472     0.0978852      -6.74497      -4.26751             0      -1.19606      -1.71704             0       56.8129      -13.3987             0       48.0676             0             0      0.222894   4.71795e-16     0.0308972        102527        103067        173342   8.64416e-16
      0.03003       288.091        288.48      0.096223      -9.47504      -4.03727             0       -1.8255      -2.07509             0       47.0282      -14.4779             0       47.7592             0             0      0.221092   5.50293e-16     0.0387317        102547        103062        175027   1.00824e-15
    0.0305305       288.066       288.486     0.0941231       -10.916      -3.46604             0       -2.3702      -2.37889             0       38.4581      -13.7106             0       46.3338             0             0      0.217458   6.87468e-16     0.0545283        102570        103060        176965   1.25957e-15
     0.031031       288.043       288.492     0.0920976      -12.2757      -2.88901             0      -2.90861      -2.67686             0       30.1552      -12.8585             0       44.8571             0             0      0.213831   8.24392e-16     0.0702982        102592        103058        178912   1.51044e-15
    0.0315315       288.055       288.495     0.0911979       -12.405      -2.22429             0      -3.35182       -2.8866             0       25.8938      -10.7241             0       42.6051             0             0      0.210298   9.57528e-16     0.0856629        102610        103058        181006   1.75437e-15
     0.032032       288.066       288.498     0.0903873      -12.4823      -1.56855             0      -3.78428      -3.09074             0       21.8981      -8.57751             0       40.3272             0             0      0.206894   1.08666e-15       0.10046        102627        103059        183121   1.99097e-15
    0.0325325       288.078       288.499     0.0908802      -11.7975      -1.04443             0      -4.05936      -3.21284             0       21.7869      -6.25167             0       37.6705             0             0        0.2054   1.15728e-15      0.106954        102640        103062        185529   2.12035e-15
     0.033033       288.089       288.499     0.0914009      -11.0875     -0.537848             0      -4.32216      -3.32993             0       21.8019      -3.96095             0       35.0073             0             0      0.203983   1.22496e-15      0.113118        102652        103065        187986   2.24435e-15
    0.0335335       288.086       288.499     0.0923158      -10.0183     -0.279468             0      -4.41117      -3.37596             0       23.6019      -2.16715             0       32.2538             0             0      0.203643   1.25107e-15      0.114594        102659        103069        191138   2.29219e-15
     0.034034       288.083       288.498     0.0931972      -8.94571    -0.0365455             0      -4.48915       -3.4189             0        25.397     -0.412208             0       29.5136             0             0      0.203321   1.27583e-15      0.115997        102667        103074        194330   2.33756e-15
    0.0345345        288.08       288.499     0.0936205      -7.82494   -0.00548141             0       -4.4161      -3.41947             0       27.1239       0.81016             0       26.9564             0             0      0.203227   1.28205e-15      0.116406        102673        103078        198056   2.34896e-15
     0.035035       288.079         288.5     0.0939426      -6.72664     0.0182619             0      -4.33541      -3.41728             0       28.7737       1.99762             0       24.4185             0             0      0.203188   1.28754e-15      0.116573        102678        103083        201796   2.35901e-15
    0.0355355       288.096       288.503     0.0929203      -5.92681     -0.055256             0      -4.15343       -3.3783             0       29.3993       2.72131             0       22.1377             0             0       0.20389   1.28319e-15      0.113523        102682        103087        205729   2.35104e-15
     0.036036       288.116       288.506     0.0917595      -5.16069      -0.12487             0      -3.96551      -3.33636             0       29.9157       3.40047             0       19.8786             0             0      0.204734   1.27745e-15      0.109851        102686        103091        209641   2.34052e-15
    0.0365365       288.165       288.513      0.088814      -4.82901     -0.144173             0      -3.70105      -3.25624             0       29.0246       3.50572             0       17.8995             0             0      0.207422   1.25371e-15     0.0981644        102690        103094        213292   2.29703e-15
     0.037037       288.214        288.52     0.0858438       -4.5189      -0.15804             0      -3.43279      -3.17261             0       28.0445        3.5702             0       15.9506             0             0      0.210136   1.22891e-15     0.0863667        102693        103098        216906    2.2516e-15
    0.0375375        288.26       288.528     0.0825629      -4.47876     -0.103874             0      -3.11692      -3.04524             0       25.9503       3.12462             0       14.3774             0             0      0.213169   1.19087e-15     0.0731762        102695        103100        220075   2.18189e-15
     0.038038       288.303       288.537     0.0793302      -4.42394     -0.057011             0      -2.79865      -2.91531             0       23.8444       2.66594             0       12.8386             0             0      0.216079   1.15341e-15     0.0605253        102696        103102        223201   2.11327e-15
    0.0385385       288.306       288.546     0.0766829      -4.19062    -0.0989335             0       -2.4511      -2.75417             0       21.5961       2.04804             0       11.7166             0             0       0.21748   1.12315e-15     0.0544348        102696        103103        225812   2.05782e-15
     0.039039       288.306       288.555     0.0741062      -3.93369     -0.148322             0      -2.10273      -2.59172             0       19.3971       1.43749             0       10.6212             0             0      0.218809   1.09432e-15     0.0486567        102697        103105        228385   2.00499e-15
    0.0395395       288.282       288.562     0.0723638      -3.39771     -0.285956             0      -1.74463      -2.41358             0       17.7801      0.913643             0        9.8411             0             0      0.219289   1.08241e-15     0.0465715        102697        103106        230513   1.98317e-15
      0.04004       288.258       288.568      0.070743      -2.84443     -0.425744             0      -1.38585      -2.23538             0       16.2146      0.398683             0       9.07262             0             0      0.219753   1.07203e-15     0.0445529        102697        103107        232605   1.96416e-15
    0.0405405       288.232       288.572     0.0705214      -2.09228     -0.590284             0      -1.01925      -2.05644             0       15.2427    -0.0141353             0       8.43807             0             0      0.220041   1.07931e-15     0.0432996        102698        103108        234274    1.9775e-15
     0.041041       288.206       288.576     0.0703701      -1.32941     -0.754559             0     -0.651114      -1.87785             0       14.2903     -0.417066             0       7.80657             0             0      0.220327    1.0873e-15     0.0420583        102700        103109        235912   1.99214e-15
    0.0415415       288.188        288.58     0.0710059      -0.44657     -0.915866             0     -0.265754      -1.70306             0       13.5558     -0.709303             0       7.20913             0             0      0.220581   1.10322e-15      0.040951        102702        103110        237212   2.02131e-15
     0.042042       288.171       288.584      0.071658      0.443818      -1.07519             0       0.12089      -1.52911             0       12.8402     -0.986496             0        6.6112             0             0      0.220824   1.11864e-15     0.0398977        102704        103111        238480   2.04956e-15
    0.0425425       288.166       288.588     0.0724862       1.41652      -1.21292             0      0.521543      -1.36426             0       12.3305      -1.09965             0       6.00776             0             0       0.22093   1.12862e-15     0.0394337        102708        103113        239402   2.06785e-15
     0.043043       288.161       288.592     0.0733051       2.39329      -1.34495             0      0.921134      -1.20067             0       11.8694      -1.19768             0       5.40513             0             0      0.221023   1.13767e-15     0.0390315        102711        103114        240296   2.08442e-15
    0.0435435       288.155       288.596     0.0740246       3.41332      -1.41638             0       1.30943      -1.05048             0       11.9239        -1.135             0       4.81101             0             0      0.220964   1.13674e-15     0.0392869        102716        103116        240894   2.08272e-15
     0.044044       288.148       288.599     0.0746638       4.43204       -1.4827             0       1.69545     -0.901782             0        12.031       -1.0617             0       4.22207             0             0      0.220892    1.1348e-15     0.0396003        102720        103118        241473   2.07916e-15
    0.0445445       288.136       288.602     0.0744705       5.43723      -1.49594             0       2.05782     -0.768401             0       12.6831     -0.878345             0       3.68674             0             0      0.220682   1.12227e-15     0.0405147        102725        103120        241846   2.05621e-15
     0.045045       288.125       288.604     0.0740885       6.42817      -1.50028             0       2.41524     -0.637339             0       13.3651     -0.691902             0       3.15726             0             0      0.220458   1.10871e-15     0.0414847        102731        103122        242213   2.03136e-15
    0.0455455       288.117       288.606     0.0718001       7.27498       -1.4146             0       2.72253     -0.529718             0       14.3488     -0.474257             0       2.68694             0             0      0.220106   1.08462e-15     0.0430155        102736        103124        242515   1.98722e-15