# vtk DataFile Version 2.0
sampleSurface
ASCII
DATASET POLYDATA
POINTS 16001 float
0 0 0.0005 0 0.001 0.0005 0.001 0 0.0005 -0.001 0
0.0005 0.001 0.001 0.0005 -0.001 0.001 0.0005 0.002 0 0.0005
0 0.002 0.0005 -0.002 0 0.0005 0.002 0.001 0.0005 0.001
0.002 0.0005 -0.002 0.001 0.0005 -0.001 0.002 0.0005 0.002 0.002
0.0005 -0.002 0.002 0.0005 0.003 0 0.0005 0 0.003 0.0005
-0.003 0 0.0005 0.003 0.001 0.0005 0.001 0.003 0.0005 -0.003
0.001 0.0005 -0.001 0.003 0.0005 0.003 0.002 0.0005 0.002 0.003
0.0005 -0.003 0.002 0.0005 -0.002 0.003 0.0005 0.004 0 0.0005
0 0.004 0.0005 -0.004 0 0.0005 0.004 0.001 0.0005 0.001
0.004 0.0005 -0.004 0.001 0.0005 -0.001 0.004 0.0005 0.003 0.003
0.0005 -0.003 0.003 0.0005 0.004 0.002 0.0005 0.002 0.004 0.0005
-0.004 0.002 0.0005 -0.002 0.004 0.0005 0.004 0.003 0.0005 0.003
0.004 0.0005 -0.004 0.003 0.0005 -0.003 0.004 0.0005 0.005 0
0.0005 0 0.005 0.0005 -0.005 0 0.0005 0.005 0.001 0.0005
0.001 0.005 0.0005 -0.005 0.001 0.0005 -0.001 0.005 0.0005 0.005
0.002 0.0005 0.002 0.005 0.0005 -0.005 0.002 0.0005 -0.002 0.005
0.0005 0.004 0.004 0.0005 -0.004 0.004 0.0005 0.005 0.003 0.0005
0.003 0.005 0.0005 -0.005 0.003 0.0005 -0.003 0.005 0.0005 0.006
0 0.0005 0 0.006 0.0005 -0.006 0 0.0005 0.006 0.001
0.0005 0.001 0.006 0.0005 -0.006 0.001 0.0005 -0.001 0.006 0.0005
0.006 0.002 0.0005 0.002 0.006 0.0005 -0.006 0.002 0.0005 -0.002
0.006 0.0005 0.005 0.004 0.0005 0.004 0.005 0.0005 -0.005 0.004
0.0005 -0.004 0.005 0.0005 0.006 0.003 0.0005 0.003 0.006 0.0005
-0.006 0.003 0.0005 -0.003 0.006 0.0005 0.007 0 0.0005 0
0.007 0.0005 -0.007 0 0.0005 0.007 0.001 0.0005 0.005 0.005
0.0005 0.001 0.007 0.0005 -0.007 0.001 0.0005 -0.005 0.005 0.0005
-0.001 0.007 0.0005 0.006 0.004 0.0005 0.004 0.006 0.0005 -0.006
0.004 0.0005 -0.004 0.006 0.0005 0.007 0.002 0.0005 0.002 0.007
0.0005 -0.007 0.002 0.0005 -0.002 0.007 0.0005 0.007 0.003 0.0005
0.003 0.007 0.0005 -0.007 0.003 0.0005 -0.003 0.007 0.0005 0.006
0.005 0.0005 0.005 0.006 0.0005 -0.006 0.005 0.0005 -0.005 0.006
0.0005 0.008 0 0.0005 0 0.008 0.0005 -0.008 0 0.0005
0.008 0.001 0.0005 0.001 0.008 0.0005 -0.008 0.001 0.0005 -0.001
0.008 0.0005 0.007 0.004 0.0005 0.004 0.007 0.0005 -0.007 0.004
0.0005 -0.004 0.007 0.0005 0.008 0.002 0.0005 0.002 0.008 0.0005
-0.008 0.002 0.0005 -0.002 0.008 0.0005 0.006 0.006 0.0005 -0.006
0.006 0.0005 0.008 0.003 0.0005 0.003 0.008 0.0005 -0.008 0.003
0.0005 -0.003 0.008 0.0005 0.007 0.005 0.0005 0.005 0.007 0.0005
-0.007 0.005 0.0005 -0.005 0.007 0.0005 0.008 0.004 0.0005 0.004
0.008 0.0005 -0.008 0.004 0.0005 -0.004 0.008 0.0005 0.009 0
0.0005 0 0.009 0.0005 -0.009 0 0.0005 0.009 0.001 0.0005
0.001 0.009 0.0005 -0.009 0.001 0.0005 -0.001 0.009 0.0005 0.009
0.002 0.0005 0.002 0.009 0.0005 -0.009 0.002 0.0005 -0.002 0.009
0.0005 0.007 0.006 0.0005 0.006 0.007 0.0005 -0.007 0.006 0.0005
-0.006 0.007 0.0005 0.008 0.005 0.0005 0.005 0.008 0.0005 -0.008
0.005 0.0005 -0.005 0.008 0.0005 0.009 0.003 0.0005 0.003 0.009
0.0005 -0.009 0.003 0.0005 -0.003 0.009 0.0005 0.009 0.004 0.0005
0.004 0.009 0.0005 -0.009 0.004 0.0005 -0.004 0.009 0.0005 0.007
0.007 0.0005 -0.007 0.007 0.0005 0.008 0.006 0.0005 0.006 0.008
0.0005 -0.008 0.006 0.0005 -0.006 0.008 0.0005 0.01 0 0.0005
0 0.01 0.0005 -0.01 0 0.0005 0.01 0.001 0.0005 0.001
0.01 0.0005 -0.01 0.001 0.0005 -0.001 0.01 0.0005 0.01 0.002
0.0005 0.002 0.01 0.0005 -0.01 0.002 0.0005 -0.002 0.01 0.0005
0.009 0.005 0.0005 0.005 0.009 0.0005 -0.009 0.005 0.0005 -0.005
0.009 0.0005 0.01 0.003 0.0005 0.003 0.01 0.0005 -0.01 0.003
0.0005 -0.003 0.01 0.0005 0.008 0.007 0.0005 0.007 0.008 0.0005
-0.008 0.007 0.0005 -0.007 0.008 0.0005 0.01 0.004 0.0005 0.004
0.01 0.0005 -0.01 0.004 0.0005 -0.004 0.01 0.0005 0.009 0.006
0.0005 0.006 0.009 0.0005 -0.009 0.006 0.0005 -0.006 0.009 0.0005
0.011 0 0.0005 0 0.011 0.0005 -0.011 0 0.0005 0.011
0.001 0.0005 0.001 0.011 0.0005 -0.011 0.001 0.0005 -0.001 0.011
0.0005 0.011 0.002 0.0005 0.002 0.011 0.0005 -0.011 0.002 0.0005
-0.002 0.011 0.0005 0.01 0.005 0.0005 0.005 0.01 0.0005 -0.01
0.005 0.0005 -0.005 0.01 0.0005 0.008 0.008 0.0005 -0.008 0.008
0.0005 0.011 0.003 0.0005 0.009 0.007 0.0005 0.007 0.009 0.0005
0.003 0.011 0.0005 -0.011 0.003 0.0005 -0.009 0.007 0.0005 -0.007
0.009 0.0005 -0.003 0.011 0.0005 0.01 0.006 0.0005 0.006 0.01
0.0005 -0.01 0.006 0.0005 -0.006 0.01 0.0005 0.011 0.004 0.0005
0.004 0.011 0.0005 -0.011 0.004 0.0005 -0.004 0.011 0.0005 0.012
0 0.0005 0 0.012 0.0005 -0.012 0 0.0005 0.012 0.001
0.0005 0.009 0.008 0.0005 0.008 0.009 0.0005 0.001 0.012 0.0005
-0.012 0.001 0.0005 -0.009 0.008 0.0005 -0.008 0.009 0.0005 -0.001
0.012 0.0005 0.011 0.005 0.0005 0.005 0.011 0.0005 -0.011 0.005
0.0005 -0.005 0.011 0.0005 0.012 0.002 0.0005 0.002 0.012 0.0005
-0.012 0.002 0.0005 -0.002 0.012 0.0005 0.01 0.007 0.0005 0.007
0.01 0.0005 -0.01 0.007 0.0005 -0.007 0.01 0.0005 0.012 0.003
0.0005 0.003 0.012 0.0005 -0.012 0.003 0.0005 -0.003 0.012 0.0005
0.011 0.006 0.0005 0.006 0.011 0.0005 -0.011 0.006 0.0005 -0.006
0.011 0.0005 0.012 0.004 0.0005 0.004 0.012 0.0005 -0.012 0.004
0.0005 -0.004 0.012 0.0005 0.009 0.009 0.0005 -0.009 0.009 0.0005
0.01 0.008 0.0005 0.008 0.01 0.0005 -0.01 0.008 0.0005 -0.008
0.01 0.0005 0.013 0 0.0005 0 0.013 0.0005 -0.013 0
0.0005 0.012 0.005 0.0005 0.005 0.012 0.0005 -0.012 0.005 0.0005
-0.005 0.012 0.0005 0.013 0.001 0.0005 0.011 0.007 0.0005 0.007
0.011 0.0005 0.001 0.013 0.0005 -0.013 0.001 0.0005 -0.011 0.007
0.0005 -0.007 0.011 0.0005 -0.001 0.013 0.0005 0.013 0.002 0.0005
0.002 0.013 0.0005 -0.013 0.002 0.0005 -0.002 0.013 0.0005 0.013
0.003 0.0005 0.003 0.013 0.0005 -0.013 0.003 0.0005 -0.003 0.013
0.0005 0.012 0.006 0.0005 0.006 0.012 0.0005 -0.012 0.006 0.0005
-0.006 0.012 0.0005 0.01 0.009 0.0005 0.009 0.01 0.0005 -0.01
0.009 0.0005 -0.009 0.01 0.0005 0.013 0.004 0.0005 0.011 0.008
0.0005 0.008 0.011 0.0005 0.004 0.013 0.0005 -0.013 0.004 0.0005
-0.011 0.008 0.0005 -0.008 0.011 0.0005 -0.004 0.013 0.0005 0.012
0.007 0.0005 0.007 0.012 0.0005 -0.012 0.007 0.0005 -0.007 0.012
0.0005 0.013 0.005 0.0005 0.005 0.013 0.0005 -0.013 0.005 0.0005
-0.005 0.013 0.0005 0.014 0 0.0005 0 0.014 0.0005 -0.014
0 0.0005 0.014 0.001 0.0005 0.001 0.014 0.0005 -0.014 0.001
0.0005 -0.001 0.014 0.0005 0.014 0.002 0.0005 0.01 0.01 0.0005
0.002 0.014 0.0005 -0.014 0.002 0.0005 -0.01 0.01 0.0005 -0.002
0.014 0.0005 0.011 0.009 0.0005 0.009 0.011 0.0005 -0.011 0.009
0.0005 -0.009 0.011 0.0005 0.013 0.006 0.0005 0.006 0.013 0.0005
-0.013 0.006 0.0005 -0.006 0.013 0.0005 0.014 0.003 0.0005 0.003
0.014 0.0005 -0.014 0.003 0.0005 -0.003 0.014 0.0005 0.012 0.008
0.0005 0.008 0.012 0.0005 -0.012 0.008 0.0005 -0.008 0.012 0.0005
0.014 0.004 0.0005 0.004 0.014 0.0005 -0.014 0.004 0.0005 -0.004
0.014 0.0005 0.013 0.007 0.0005 0.007 0.013 0.0005 -0.013 0.007
0.0005 -0.007 0.013 0.0005 0.011 0.01 0.0005 0.01 0.011 0.0005
-0.011 0.01 0.0005 -0.01 0.011 0.0005 0.014 0.005 0.0005 0.005
0.014 0.0005 -0.014 0.005 0.0005 -0.005 0.014 0.0005 0.015 0
0.0005 0.012 0.009 0.0005 0.009 0.012 0.0005 0 0.015 0.0005
-0.015 0 0.0005 -0.012 0.009 0.0005 -0.009 0.012 0.0005 0.015
0.001 0.0005 0.001 0.015 0.0005 -0.015 0.001 0.0005 -0.001 0.015
0.0005 0.015 0.002 0.0005 0.002 0.015 0.0005 -0.015 0.002 0.0005
-0.002 0.015 0.0005 0.014 0.006 0.0005 0.006 0.014 0.0005 -0.014
0.006 0.0005 -0.006 0.014 0.0005 0.013 0.008 0.0005 0.008 0.013
0.0005 -0.013 0.008 0.0005 -0.008 0.013 0.0005 0.015 0.003 0.0005
0.003 0.015 0.0005 -0.015 0.003 0.0005 -0.003 0.015 0.0005 0.015
0.004 0.0005 0.004 0.015 0.0005 -0.015 0.004 0.0005 -0.004 0.015
0.0005 0.011 0.011 0.0005 -0.011 0.011 0.0005 0.012 0.01 0.0005
0.01 0.012 0.0005 -0.012 0.01 0.0005 -0.01 0.012 0.0005 0.014
0.007 0.0005 0.007 0.014 0.0005 -0.014 0.007 0.0005 -0.007 0.014
0.0005 0.015 0.005 0.0005 0.013 0.009 0.0005 0.009 0.013 0.0005
0.005 0.015 0.0005 -0.015 0.005 0.0005 -0.013 0.009 0.0005 -0.009
0.013 0.0005 -0.005 0.015 0.0005 0.016 0 0.0005 0 0.016
0.0005 -0.016 0 0.0005 0.016 0.001 0.0005 0.001 0.016 0.0005
-0.016 0.001 0.0005 -0.001 0.016 0.0005 0.016 0.002 0.0005 0.002
0.016 0.0005 -0.016 0.002 0.0005 -0.002 0.016 0.0005 0.014 0.008
0.0005 0.008 0.014 0.0005 -0.014 0.008 0.0005 -0.008 0.014 0.0005
0.015 0.006 0.0005 0.006 0.015 0.0005 -0.015 0.006 0.0005 -0.006
0.015 0.0005 0.016 0.003 0.0005 0.012 0.011 0.0005 0.011 0.012
0.0005 0.003 0.016 0.0005 -0.016 0.003 0.0005 -0.012 0.011 0.0005
-0.011 0.012 0.0005 -0.003 0.016 0.0005 0.013 0.01 0.0005 0.01
0.013 0.0005 -0.013 0.01 0.0005 -0.01 0.013 0.0005 0.016 0.004
0.0005 0.004 0.016 0.0005 -0.016 0.004 0.0005 -0.004 0.016 0.0005
0.015 0.007 0.0005 0.007 0.015 0.0005 -0.015 0.007 0.0005 -0.007
0.015 0.0005 0.014 0.009 0.0005 0.009 0.014 0.0005 -0.014 0.009
0.0005 -0.009 0.014 0.0005 0.016 0.005 0.0005 0.005 0.016 0.0005
-0.016 0.005 0.0005 -0.005 0.016 0.0005 0.012 0.012 0.0005 -0.012
0.012 0.0005 0.015 0.008 0.0005 0.008 0.015 0.0005 -0.015 0.008
0.0005 -0.008 0.015 0.0005 0.017 0 0.0005 0 0.017 0.0005
-0.017 0 0.0005 0.013 0.011 0.0005 0.011 0.013 0.0005 -0.013
0.011 0.0005 -0.011 0.013 0.0005 0.017 0.001 0.0005 0.001 0.017
0.0005 -0.017 0.001 0.0005 -0.001 0.017 0.0005 0.016 0.006 0.0005
0.006 0.016 0.0005 -0.016 0.006 0.0005 -0.006 0.016 0.0005 0.017
0.002 0.0005 0.002 0.017 0.0005 -0.017 0.002 0.0005 -0.002 0.017
0.0005 0.014 0.01 0.0005 0.01 0.014 0.0005 -0.014 0.01 0.0005
-0.01 0.014 0.0005 0.017 0.003 0.0005 0.003 0.017 0.0005 -0.017
0.003 0.0005 -0.003 0.017 0.0005 0.016 0.007 0.0005 0.007 0.016
0.0005 -0.016 0.007 0.0005 -0.007 0.016 0.0005 0.017 0.004 0.0005
0.004 0.017 0.0005 -0.017 0.004 0.0005 -0.004 0.017 0.0005 0.015
0.009 0.0005 0.009 0.015 0.0005 -0.015 0.009 0.0005 -0.009 0.015
0.0005 0.013 0.012 0.0005 0.012 0.013 0.0005 -0.012 0.013 0.0005
-0.013 0.012 0.0005 0.017 0.005 0.0005 0.005 0.017 0.0005 -0.017
0.005 0.0005 -0.005 0.017 0.0005 0.014 0.011 0.0005 0.011 0.014
0.0005 -0.014 0.011 0.0005 -0.011 0.014 0.0005 0.016 0.008 0.0005
0.008 0.016 0.0005 -0.016 0.008 0.0005 -0.008 0.016 0.0005 0.018
[...]
POINT_DATA 16001
FIELD attributes 17
p 1 16001 float
111115 111115 111262 110973 111261 110975 111402 111118 110846 111400 111260
110849 110982 111398 110860 111526 111126 110737 111524 111263 110742
110995 111521 111396 110755 110877 111627 111144 110646 111625 111276
110651 111016 111516 110773 111619 111402 110665 110898 111609 111515
110685 110794 111701 111172 110568 111698 111302 110573 111044 111689
111420 110588 110924 111600 110705 111675 111522 110608 110817 111745
111215 110496 111741 111342 110502 111083 111731 111451 110517 110958
111664 111599 110629 110726 111720 111546 110538 110843 111768 111272
110426 111765 111663 111399 110432 110648 111133 111717 111616 110560
110746 111762 111499 110447 111001 111763 111585 110469 110876 111725
111682 110580 110664 111781 111348 110355 111784 111469 110360 111197
111775 111648 110493 110769 111793 111551 110375 111055 111754 110594
111813 111635 110398 110916 111798 111716 110514 110677 111840 111700
110424 110795 111806 111437 110284 111815 111560 110289 111264 111839
111624 110304 111111 111836 111794 110531 110603 111873 111772 110450
110690 111873 111706 110327 110957 111908 111762 110355 110822 111881
110539 111912 111853 110472 110606 111853 111558 110220 111865 111646
110225 111343 111895 111648 110239 111163 111942 111826 110386 110701
111932 111742 110261 110993 111955 111936 110487 110541 111965 111810
110291 110843 111976 111899 110416 110607 111920 111704 110171 111932
111737 110175 111391 111959 111653 110188 111190 111995 111870 110327
110709 111999 110495 111989 112015 111976 111761 110209 110441 110539
111010 112027 111938 110364 110607 112016 111886 110239 110853 111993
112202 110144 112002 112050 112038 111899 110148 110460 110498 112525
112040 111975 110277 110714 112022 111801 110158 112665 112068 112010
110401 110536 112042 111864 110178 112802 112079 112045 110320 110608
112061 111997 110206 112913 112095 110473 112110 112069 110433 110498
112067 112382 110143 112081 112087 110243 113044 112073 112127 112096
112175 110145 110365 110535 112568 112086 112079 110153 112690 112097
112089 110168 112814 112119 112144 110287 113174 112158 112122 110457
110480 112108 112188 112121 112155 110192 110407 110497 112923 112172
112167 110335 113308 112113 112204 110225 113051 112132 112524 110161
112136 112403 110163 112625 112141 112172 112321 110168 110473 112725
112245 112138 110441 110482 112143 112239 110266 113178 112142 112303
110179 112835 112260 112167 110381 113424 112139 112311 110197 112941
112163 112242 110310 113310 112242 112163 110463 110478 112127 112316
110223 113065 112188 112318 112164 112543 110192 110419 113520 112189
112468 110193 112649 112185 112448 110195 112738 112125 112327 110255
113187 112268 112221 110354 113425 112178 112424 110202 112849 112162
112412 110213 112957 112215 110471 112265 112175 110445 113586 112130
112322 110292 113314 112156 112277 112196 112392 110231 110391 113522
113080 112228 112554 110223 112227 112507 110224 112658 112218 112540
110225 112745 112147 112287 110329 113428 112143 112393 110254 113197
112201 112249 112209 112537 110228 110454 113629 112858 112230 112192
110416 113590 112183 112503 110234 112968 112167 112384 110281 113320
112128 112246 110360 113528 112184 112464 110244 113090 112255 113658
112147 112344 110307 113433 112249 112422 110247 112299 112215 110425
113635 112248 112421 110248 112655 112187 112460 110258 113206 112236
112522 110248 112748 112195 112233 110382 113601 112217 112592 110250
112860 112212 112451 110274 113326 112194 112576 110252 112973 112141
112303 110330 113535 112307 112233 113663 113692 112198 112528 110257
113094 112286 112243 110389 113649 112218 112416 110291 113437 112261
112282 110261 112258 112235 112284 112380 110262 110346 112386 113613
112182 112514 110264 113209 112249 112559 110263 112430 112227 112683
110264 112461 112200 112371 110306 113541 112277 113695 112207 112498
110272 113328 112208 112695 110266 112493 112396 112250 113746 113677
112295 112289 110351 113665 112191 112642 110268 112515 112193 112475
110281 113440 112240 112342 110316 113623 112164 112590 110271 112526
112266 112399 110267 112263 112487 110268 112415 112257 112395 112264
112647 110270 112438 113746 113703 112583 112290 113833 113694 112233
112158 112444 112758 110273 110289 112464 113544 112131 112545 110274
112523 112286 112333 110319 113678 112219 112791 110276 112492 112194
112746 110278 112514 112118 112522 110278 112506 112191 112413 110294
113626 112283 113744 112593 112294 113828 113713 112184 112660 110279
112526 112469 112316 113948 113706 112275 112478 110271 112271 112554
110272 112454 112269 112669 110276 112448 112143 112513 110281 112481
112247 112768 110281 112465 112139 112208 112395 112584 110281 110296
112523 113682 112234 112816 110285 112487 112329 112295 113815 113743
112164 112498 110283 112455 112118 112488 112306 112554 110281 112506
113939 113721 112222 112800 110289 112510 112241 112362 114079 113711
112235 112730 110291 112524 112284 112500 110278 112148 112570 110282
112480 112282 112580 110280 112459 112181 112477 110283 112438 112284
112687 110285 112445 112229 112643 110292 112523 112319 113799 112261
112785 110291 112455 112306 112304 113916 113741 112246 112840 110298
112476 112266 112351 114069 113724 112141 112580 110283 112453 112191
112610 110292 112505 112233 112846 110303 112501 112211 112448 112434
114210 112278 112804 110306 112518 112174 112293 112321 112633 110292
112476 113889 113787 112154 112564 110282 112436 112301 112506 110292
112299 112581 110294 112457 112258 112353 114041 113741 112304 112678
110299 112437 112265 112734 110308 112519 112281 112221 112432 112775
110306 112442 112442 114200 112263 112845 110313 112461 112157 112658
110292 112447 112201 112173 112534 112701 110308 112432 112501 114333
112241 112874 110320 112488 112310 113868 112270 112364 114007 113783
112282 112227 112420 112860 110324 112459 112508 114173 112159 112656
110291 112428 112193 112715 110309 112470 112317 112501 110310 112317
112189 112515 112569 110312 112441 112449 114325 112320 112262 112822
112656 110316 110328 112512 112427 112294 112750 110323 112428 112174
112741 110309 112439 112166 112630 112425 114442 112258 112824 110330
112447 112308 112347 113980 113859 112207 112796 110329 112494 112266
112417 112477 114140 112226 112873 110337 112474 112210 112499 112459
114303 112169 112749 110307 112419 112200 112219 112800 112889 110343
110330 112462 112497 112192 112607 112437 114438 112342 112513 110330
112345 112560 110331 112452 112183 112879 110348 112502 112335 113970
112349 112303 112393 112620 110335 112492 112422 114113 112200 112817
110331 112430 112330 112165 112731 112709 110340 112417 112421 114543
112239 112468 112478 114277 112290 112786 110347 112437 112204 112866
110350 112486 112206 112587 112458 114426 112259 112850 110355 112463
112195 112828 110329 112410 112225 112869 110353 112455 112177 112705
112432 114544 112218 112886 110362 112487 112338 112381 112502 114103
112265 112461 112494 114256 112212 112211 112550 112901 110367 112481
112494 114412 112375 112535 110340 112380 112569 110341 112464 112187
112820 112410 114635 112218 112881 110354 112422 112385 112599 110344
112427 112374 112670 110350 112421 112176 112678 112458 114544 112248
112906 110372 112480 112346 112741 110356 112435 112377 112507 112216
112311 112459 112892 110352 112504 112402 114248 112311 112809 110364
112460 112188 112796 112429 114640 112231 112546 112499 114400 112253
112917 110375 112449 112292 112857 110371 112483 112184 112646 112484
114544 112206 112889 112405 114713 112284 112889 110378 112491 112413
112607 112251 112933 110377 112416 112420 112598 112428 112186 112765
112613 112459 114652 112424 112358 112415 112655 112510 112511 112275
112533 112510 114396 112284 112910 110383 112477 112396 112705 112245
112215 112626 112949 110376 112505 112398 114544 112201 112870 112428
114722 112362 112762 112285 112933 110387 112447 112204 112718 112490
114667 112344 112811 112235 112954 112402 114764 112394 112514 112336
112479 112519 112515 112328 112200 112838 112854 112461 114745 112281
112959 110389 112415 112449 112644 112459 112637 112260 112606 112517
114544 112470 112641 112472 112656 112316 112245 112686 112891 112513
114679 112452 112681 112232 112943 112427 114775 112273 112985 110388
112397 112413 112225 112782 112717 112495 114773 112309 112931 112378
112450 112521 112518 112395 112757 112317 112568 112530 112522 112264
112998 112401 114776 112239 112913 112464 114805 112290 112664 112526
114683 112305 112972 112377 112805 112483 112683 112267 112738 112520
114796 112492 112675 112502 112669 112350 112856 112503 112669 112265
112999 112427 114789 112300 113010 112487 112424 112675 112524 112267
112868 112500 114841 112356 112532 112533 112523 112334 112635 112546
112529 112433 112692 112335 112914 112307 112714 112533 114805 112298
113034 112408 112720 112278 112982 112464 114819 112328 112972 112305
112826 112526 114871 112400 112762 112522 112404 112503 112727 112535
112528 112528 112720 112303 112362 112617 113048 112549 112530 112533
112711 112369 112818 112326 113025 112529 112305 112950 112702 112501
114858 112341 112701 112562 112536 112507 112694 112352 112336 112796
112886 112539 114882 112448 112695 112317 113046 112328 113063 112422
112708 112333 112911 112527 114890 112484 112537 112409 112591 112550
112533 112347 112957 112367 112710 112565 112536 112416 112740 112335
113090 112558 112362 112789 112780 112576 112541 112338 113029 112560
112775 112556 112764 112385 112347 113026 112790 112542 112750 112357
112883 112540 114901 112520 112735 112370 112859 112462 112346 113100
112724 112491 112571 112552 112541 112355 113079 112420 112682 112566
112537 112357 113000 112427 112722 112386 112799 112579 112539 112366
112936 112421 112740 112382 112880 112584 112542 112361 113118 112361
113097 112587 112845 112587 112840 112367 113012 112397 112779 112577
112373 112980 112829 112560 112554 112553 112502 112644 112811 112567
112544 112446 112771 112579 112540 112534 112788 112369 113139 112386
112839 112372 112372 113078 113075 112494 112766 112413 112884 112586
112539 112458 112752 112382 112395 112977 112911 112378 113148 112440
112381 113125 112756 112551 112615 112569 112557 112513 112722 112580
112546 112382 113065 112380 112987 112605 112921 112606 112415 112780
112915 112489 112858 112587 112539 112591 112899 112565 112873 112432
112977 112385 113155 112545 112841 112383 113139 112402 112826 112382
113054 112518 112809 112401 113058 112591 112572 112490 112543 112678
112785 112582 112558 112394 112885 112387 112546 112820 113174 112587
112545 112382 113110 112462 112775 112391 113132 112507 112949 112389
112951 112432 112783 112619 113001 112438 113058 112621 112993 112601
112969 112385 113149 112391 113178 112574 112932 112416 112387 113012
112810 112548 112576 112654 112891 112584 112572 112409 113122 112547
112772 112588 112557 112521 112850 112546 112921 112403 112848 112389
113181 112502 112816 112489 113036 112379 113069 112399 113179 112475
112795 112392 112897 112441 113123 112631 112584 112445 112785 112571
112753 112590 112571 112395 113199 112627 113068 112626 112382 113115
113057 112530 112874 112604 113025 112576 112417 113167 112980 112389
112948 112426 112513 113009 112789 112548 112932 112525 112886 112474
113104 112392 113159 112405 113211 112410 112802 112512 112846 112387
113001 112624 112716 112590 112582 112443 113166 112543 112853 112485
112813 112399 112828 112503 112958 112400 113191 112391 113050 112452
112784 112422 113202 112625 112484 113080 113114 112621 113101 112596
113066 112394 112861 112572 113019 112430 112763 112550 112461 113143
112970 112399 113104 112415 113218 112535 112688 112924 112588 112574
112803 112412 112749 112394 112501 112932 112905 112440 113198 112522
112880 112481 113026 112490 112836 112401 112750 112409 113150 112461
113124 112427 113218 112401 112954 112459 112789 112609 113132 112605
113120 112581 112447 113170 113088 112397 112762 112603 112755 112564
113045 112516 112881 112437 112743 112546 113003 112421 112471 112993
113194 112409 113016 112548 112963 112437 113213 112454 113074 112421
112399 112793 112702 112530 112918 112446 113148 112482 112864 112417
113075 112408 112675 112428 113209 112662 112407 112838 112526 112822
112459 112799 112482 112945 112438 113177 112583 113136 112407 112665
112580 113126 112448 113030 112559 113100 112440 112731 112545 113068
112422 113137 112415 112904 112444 113106 112512 113035 112433 113210
112509 113002 112409 112681 112426 112665 112440 113146 112492 112958
112581 112742 112498 112890 112421 112975 112424 113170 112416 112612
112460 112977 112453 112896 112414 112718 112434 113169 112448 113058
112450 112817 112413 112577 112553 113134 112550 112445 113092 113126
112423 113054 112533 113108 112433 112731 112421 112427 113182 112786
112506 113087 112686 112461 112507 112812 113065 112413 112575 112439
113130 112475 112942 112422 112643 112412 113038 112475 112997 112402
112425 113103 112992 112425 112865 112430 113140 112414 112564 112457
113049 112418 112603 112423 112924 112456 113064 112430 112835 112410
112504 112534 112771 112425 112953 112426 112471 112875 113126 112423
112670 112537 113135 112534 113130 112424 112738 112524 112501 112985
113121 112496 113110 112439 113092 112456 112484 112994 113096 112410
112483 112417 112632 112406 113071 112426 113010 112425 112751 112479
113035 112435 113088 112401 113020 112412 112500 112410 112529 112565
112426 112463 112845 112946 112465 113016 112527 112942 112426 112842
112425 112853 112428 112509 113004 113040 112406 112446 112414 112563
112454 113039 112510 113001 112537 113136 112537 113134 112422 112750
112528 113133 112507 113132 112404 112408 112468 113123 112497 112995
112429 112897 112413 112631 112418 112643 112446 112441 112461 112587
113004 113097 112556 112915 112444 113043 112534 112985 112405 112484
112966 112414 112406 112511 112436 112539 113039 112965 112436 112926
112424 112728 112433 112871 112399 112412 112528 112976 112466 112963
112408 112469 112423 112765 112553 113134 112552 112452 113135 112583
112601 112518 112960 112542 113142 112558 112960 112516 112397 112362
113149 112433 112775 112452 112898 112476 113146 112414 112569 113030
112541 112411 112639 112456 113120 112499 112904 112558 113052 112398
112358 112454 113065 112401 112510 112446 112803 112442 112986 112551
112965 112422 112614 112478 112873 112606 112442 112390 112402 112583
112611 112434 112892 112402 112401 112599 112967 112534 112903 112423
112784 112585 113119 112584 112586 113031 113124 112438 112650 112570
113138 112466 112791 112390 112346 112545 113154 112412 112458 112513
112836 112504 113158 112410 112580 113084 112656 112486 113137 112394
112332 112625 112481 113084 112566 112908 112606 112443 112401 112524
112456 112679 112627 112607 112492 112793 112424 112516 112456 113006
112614 112884 112547 112835 112397 112360 112391 112413 112441 112913
112607 112988 112477 112690 112443 112543 112424 112808 112622 113090
112620 113098 112388 112352 112593 112952 112524 112789 112604 113121
112408 112398 112573 113147 112626 112649 112411 112682 112535 113160
112654 112456 112577 112830 112639 112575 112519 113147 112388 112329
112465 112582 112506 113100 112503 112635 112698 112722 112403 112553
112424 112440 112471 112556 112801 113026 112618 112773 112392 112344
112400 112441 112450 112936 112487 112603 112794 112621 112645 112445
112680 112670 112466 112532 112744 112429 112836 112662 112490 112389
112374 112662 113046 112659 113057 112403 112365 112642 113088 112659
112544 112606 112584 112806 113124 112413 112718 112563 113149 112642
112572 112382 112342 112544 113147 112468 112520 112512 112679 112405
112596 112419 112398 112524 112625 112658 113111 112561 112757 112483
112704 112665 113045 112388 112687 112690 112345 112399 112488 112608
112788 112679 112571 112458 112961 112494 112581 112540 112718 112441
112431 112665 112615 112437 112868 112389 112417 112396 112586 112764
112356 112696 112646 112640 112994 112692 113007 112674 113044 112631
113090 112419 112760 112576 113127 112521 112650 112466 112501 112382
112630 112722 112377 112725 112548 112567 112734 113139 112711 112690
112412 112390 112705 112709 112409 112650 112528 113116 112685 112663
112608 112750 112489 112385 112370 113063 112398 112668 112722 112552
112495 112574 112549 112694 112435 112433 112462 112989 112590 112756
112654 112716 112386 112391 112378 112483 112441 112904 112732 112748
112719 112938 112715 112730 112719 112953 112700 112628 112708 112994
112527 112641 112662 112422 112807 113048 112462 112712 112742 112512
112575 112714 112599 112377 112438 113095 112692 112726 112407 112417
112555 113120 112409 112711 112608 112754 112527 113114 112678 112766
112378 112424 112495 112584 112489 113078 112557 112685 112397 112623
112428 112466 112650 112731 112596 112753 112754 112465 113018 112752
112768 112741 112753 112384 112428 112385 112559 112723 112780 112444
112943 112628 112734 112530 112647 112729 112887 112455 112705 112770
112549 112724 112586 112711 112903 112711 112946 112426 112859 112683
113004 112375 112513 112620 112399 112467 113059 112613 112764 112679
112787 112564 113096 112413 112775 112533 113104 112774 112775 112565
112690 112491 112616 112761 112787 112374 112656 112761 112492 112756
112782 112609 112759 112495 113089 112399 112420 112520 112696 112737
112809 112471 113049 112635 112755 112377 112492 112388 112633 112710
112797 112451 112531 112676 112987 112597 112722 112448 112603 112723
112845 112717 112688 112802 112861 112626 112774 112700 112906 112432
112914 112378 112582 112794 112670 112966 112390 112783 112793 112531
112609 112780 112801 113025 112562 112663 112777 113070 112770 112805
112419 112841 112574 112722 112486 112670 112540 112624 112765 113091
112373 112556 112746 112830 112411 112587 112504 112406 112770 113095
112640 112777 112715 112813 112479 113074 112375 112556 112532 112730
112395 112611 112751 112703 112804 112809 112695 112808 112458 112801
112804 113028 112441 112677 112639 112776 112799 112814 112706 112818
112697 112834 112440 112966 112383 112385 112778 112825 112601 112647
112677 112879 112646 112661 112796 112940 112592 113001 112579 112771
112754 112842 112639 112781 112426 112482 112749 112900 112554 113051
112377 112620 112538 113082 112405 112670 112653 112789 112729 112822
112412 112834 112508 112820 113096 112823 112818 112821 112813 112623
112788 112487 112376 112694 112817 112625 113089 112530 112804 112806
112830 112399 112765 112658 112787 112437 112770 112796 112839 112468
113058 112674 112805 112386 112683 112386 112767 112848 112708 112681
112808 112450 113003 112671 112825 112650 112870 112582 112827 112623
112931 112657 112809 112479 112842 112579 112993 112840 112831 112435
112737 112830 112942 112672 112795 112841 112823 112546 113043 112382
112685 112406 112835 112825 112768 112535 113077 112830 112842 112419
112876 112702 112819 112514 113096 112630 112824 112528 112876 112383
112697 112678 112805 112848 112806 112498 113095 112406 112434 112872
112809 112685 112803 112776 112851 112480 113068 112852 112395 112767
112857 112836 112393 112753 112581 112857 112829 112875 112461 113017
112648 112666 112839 112638 112621 112736 112828 112476 112931 112600
112856 112835 112690 112794 112570 112445 112957 112840 112852 112545
112389 112729 112412 112861 112703 112808 112536 112805 112853 112429
112889 112630 112859 112521 112524 112689 112826 112938 112389 112745
112771 112845 112506 112434 112697 112869 112857 112783 112960 112416
112875 112839 112825 112875 112836 112490 112866 112847 112729 112811
112394 112819 112669 112874 112577 112910 112405 112770 112472 112702
112780 112607 112471 113004 112600 112835 112859 112593 112583 112571
112710 112775 112457 112805 112848 112399 112408 112915 112743 112555
112877 112626 112878 112542 112891 112859 112697 112849 112439 112518