#           y             T         TMean   TPrime2Mean           U_x           U_y           U_z       UMean_x       UMean_y       UMean_z UPrime2Mea... UPrime2Mea... UPrime2Mea... UPrime2Mea... UPrime2Mea... UPrime2Mea...            O2           H2O          C3H8             p         pMean   pPrime2Mean           CO2
         0.03       288.248       288.552      0.303873       8.26346      -4.58736             0       3.56022      0.944235             0       18.4819      -1.35448             0       54.7316             0             0      0.187723   1.27201e-15      0.183812        102773        103143        266156   2.33057e-15
    0.0301702       288.249       288.551      0.301135       8.17894      -4.53369             0        3.5285      0.981885             0       18.5385      -1.32989             0       54.6475             0             0      0.187692   1.28599e-15       0.18395        102773        103143        265627   2.35617e-15
    0.0303403        288.25       288.549      0.298398       8.09442      -4.48002             0       3.49678       1.01954             0       18.5952      -1.30531             0       54.5634             0             0       0.18766   1.29997e-15      0.184087        102773        103143        265097   2.38178e-15
    0.0305105       288.251       288.547       0.29566        8.0099      -4.42636             0       3.46507       1.05719             0       18.6519      -1.28072             0       54.4793             0             0      0.187628   1.31394e-15      0.184225        102774        103144        264568   2.40739e-15
    0.0306807       288.251       288.545      0.292922       7.92538      -4.37269             0       3.43335       1.09484             0       18.7085      -1.25614             0       54.3952             0             0      0.187597   1.32792e-15      0.184362        102774        103144        264039   2.43299e-15
    0.0308509       288.252       288.543      0.290184       7.84086      -4.31902             0       3.40163       1.13249             0       18.7652      -1.23155             0       54.3112             0             0      0.187565   1.34189e-15        0.1845        102774        103144        263509    2.4586e-15
     0.031021       288.253       288.541      0.287568       7.75629      -4.26495             0       3.37219       1.17056             0       18.8446      -1.20214             0       54.2133             0             0      0.187529   1.35576e-15      0.184657        102774        103144        262972   2.48401e-15
    0.0311912       288.251       288.539      0.285816       7.67134      -4.20797             0       3.35885       1.21159             0       19.0857      -1.13851             0       54.0179             0             0      0.187461   1.36886e-15      0.184952        102774        103145        262377     2.508e-15
    0.0313614        288.25       288.536      0.284064       7.58638      -4.15099             0       3.34551       1.25263             0       19.3268      -1.07487             0       53.8225             0             0      0.187393   1.38195e-15      0.185248        102774        103145        261783   2.53199e-15
    0.0315315       288.248       288.534      0.282312       7.50143      -4.09401             0       3.33217       1.29367             0       19.5679      -1.01124             0        53.627             0             0      0.187325   1.39505e-15      0.185544        102773        103146        261189   2.55599e-15
    0.0317017       288.247       288.532       0.28056       7.41648      -4.03703             0       3.31883        1.3347             0       19.8089     -0.947601             0       53.4316             0             0      0.187257   1.40814e-15       0.18584        102773        103146        260594   2.57998e-15
    0.0318719       288.246       288.529      0.278809       7.33153      -3.98005             0       3.30549       1.37574             0         20.05     -0.883966             0       53.2362             0             0      0.187189   1.42124e-15      0.186135        102773        103147        260000   2.60397e-15
     0.032042       288.244       288.527      0.277353       7.24748      -3.92346             0       3.29569       1.41694             0       20.3431     -0.805577             0       53.0175             0             0      0.187113   1.43411e-15      0.186467        102773        103147        259399   2.62755e-15
    0.0322122       288.242       288.524      0.276802       7.16618      -3.86806             0       3.29668       1.45863             0       20.7945     -0.682228             0       52.7281             0             0      0.187011   1.44628e-15      0.186907        102773        103148        258781   2.64986e-15
    0.0323824        288.24       288.522      0.276251       7.08487      -3.81266             0       3.29767       1.50031             0       21.2458     -0.558879             0       52.4386             0             0       0.18691   1.45846e-15      0.187347        102772        103148        258163   2.67217e-15
    0.0325526       288.238        288.52        0.2757       7.00357      -3.75725             0       3.29865         1.542             0       21.6972      -0.43553             0       52.1491             0             0      0.186809   1.47064e-15      0.187787        102772        103149        257545   2.69448e-15
    0.0327227       288.235       288.517      0.275149       6.92227      -3.70185             0       3.29964       1.58369             0       22.1486     -0.312181             0       51.8596             0             0      0.186708   1.48281e-15      0.188227        102772        103150        256927   2.71679e-15
    0.0328929       288.233       288.515      0.274597       6.84096      -3.64645             0       3.30063       1.62538             0          22.6     -0.188832             0       51.5702             0             0      0.186607   1.49499e-15      0.188667        102772        103150        256308    2.7391e-15
    0.0330631       288.231       288.512      0.274411        6.7619      -3.59271             0       3.30448       1.66658             0       23.1591    -0.0443383             0       51.2532             0             0      0.186489   1.50723e-15      0.189177        102771        103151        255691   2.76153e-15
    0.0332332       288.229        288.51      0.274844       6.68664      -3.54181             0       3.31321       1.70696             0       23.9011      0.136069             0       50.8895             0             0      0.186344   1.51959e-15      0.189807        102771        103152        255075   2.78417e-15
    0.0334034       288.226       288.508      0.275277       6.61139       -3.4909             0       3.32194       1.74734             0       24.6431      0.316477             0       50.5258             0             0      0.186199   1.53194e-15      0.190437        102771        103152        254458    2.8068e-15
    0.0335736       288.224       288.505       0.27571       6.53613         -3.44             0       3.33067       1.78771             0       25.3851      0.496884             0        50.162             0             0      0.186054   1.54429e-15      0.191068        102770        103153        253842   2.82943e-15
    0.0337437       288.222       288.503      0.276143       6.46088       -3.3891             0       3.33939       1.82809             0       26.1271      0.677291             0       49.7983             0             0      0.185909   1.55664e-15      0.191698        102770        103154        253226   2.85206e-15
    0.0339139        288.22         288.5      0.276576       6.38562      -3.33819             0       3.34812       1.86846             0       26.8691      0.857699             0       49.4346             0             0      0.185765   1.56899e-15      0.192328        102770        103154        252609   2.87469e-15
    0.0340841       288.218       288.498       0.27732       6.31392       -3.2898             0       3.35938        1.9071             0       27.7525       1.06084             0        49.037             0             0      0.185597   1.58181e-15      0.193056        102769        103155        252001   2.89817e-15
    0.0342543       288.215       288.496      0.278383       6.24586      -3.24396             0       3.37322       1.94396             0       28.7807       1.28727             0       48.6048             0             0      0.185407    1.5951e-15      0.193884        102769        103156        251400   2.92253e-15
    0.0344244       288.213       288.494      0.279447       6.17779      -3.19813             0       3.38706       1.98083             0       29.8089       1.51369             0       48.1725             0             0      0.185216    1.6084e-15      0.194712        102769        103157        250799   2.94688e-15
    0.0345946       288.211       288.492       0.28051       6.10973       -3.1523             0        3.4009       2.01769             0       30.8372       1.74011             0       47.7403             0             0      0.185026   1.62169e-15       0.19554        102768        103158        250199   2.97124e-15
    0.0347648       288.209        288.49      0.281573       6.04167      -3.10647             0       3.41474       2.05455             0       31.8654       1.96653             0        47.308             0             0      0.184835   1.63498e-15      0.196368        102768        103159        249598   2.99559e-15
    0.0349349       288.207       288.488      0.282636       5.97361      -3.06064             0       3.42859       2.09141             0       32.8936       2.19296             0       46.8758             0             0      0.184645   1.64828e-15      0.197197        102768        103160        248997   3.01995e-15
    0.0351051       288.205       288.486      0.283612        5.9105      -3.01732             0         3.446       2.12513             0       34.0145       2.42296             0        46.404             0             0      0.184443   1.66029e-15      0.198074        102768        103161        248410   3.04196e-15
    0.0352753       288.203       288.485      0.284532       5.85045      -2.97557             0       3.46563        2.1569             0       35.1927       2.65518             0       45.9077             0             0      0.184234   1.67151e-15      0.198983        102768        103162        247831   3.06253e-15
    0.0354454       288.202       288.483      0.285453        5.7904      -2.93382             0       3.48527       2.18867             0        36.371        2.8874             0       45.4113             0             0      0.184025   1.68274e-15      0.199892        102767        103163        247252   3.08309e-15
    0.0356156         288.2       288.482      0.286373       5.73035      -2.89207             0        3.5049       2.22044             0       37.5492       3.11962             0        44.915             0             0      0.183816   1.69396e-15      0.200801        102767        103164        246673   3.10365e-15
    0.0357858       288.199       288.481      0.287294        5.6703      -2.85032             0       3.52453       2.25221             0       38.7275       3.35184             0       44.4187             0             0      0.183607   1.70518e-15       0.20171        102767        103165        246094   3.12421e-15
     0.035956       288.197        288.48      0.288214       5.61026      -2.80857             0       3.54416       2.28398             0       39.9057       3.58406             0       43.9224             0             0      0.183398   1.71641e-15      0.202619        102767        103166        245515   3.14478e-15
    0.0361261       288.196       288.479      0.288272       5.55727      -2.76838             0       3.56787       2.31114             0       41.0868       3.77775             0       43.3932             0             0      0.183203   1.72548e-15      0.203466        102767        103167        244974   3.16141e-15
    0.0362963       288.194       288.479      0.288028       5.50676      -2.72873             0         3.593        2.3367             0        42.269       3.95798             0       42.8525             0             0      0.183013   1.73381e-15      0.204292        102767        103168        244446   3.17667e-15
    0.0364665       288.193       288.478      0.287784       5.45625      -2.68908             0       3.61814       2.36225             0       43.4511       4.13822             0       42.3118             0             0      0.182823   1.74214e-15      0.205118        102766        103169        243919   3.19193e-15
    0.0366366       288.192       288.478      0.287541       5.40573      -2.64942             0       3.64327        2.3878             0       44.6333       4.31845             0       41.7712             0             0      0.182633   1.75047e-15      0.205943        102766        103170        243391   3.20718e-15
    0.0368068       288.191       288.478      0.287297       5.35522      -2.60977             0        3.6684       2.41335             0       45.8154       4.49868             0       41.2305             0             0      0.182443    1.7588e-15      0.206769        102766        103171        242864   3.22244e-15
     0.036977       288.189       288.477      0.287053       5.30471      -2.57012             0       3.69354        2.4389             0       46.9975       4.67892             0       40.6898             0             0      0.182253   1.76712e-15      0.207595        102766        103172        242336    3.2377e-15
    0.0371471       288.188       288.478      0.285262       5.26446       -2.5302             0       3.72324       2.45702             0       48.0695       4.81457             0       40.1218             0             0       0.18208   1.77361e-15      0.208348        102766        103174        241865   3.24958e-15
    0.0373173       288.186       288.478      0.283228       5.22582      -2.49023             0       3.75365       2.47397             0       49.1242       4.94324             0       39.5495             0             0      0.181909   1.77981e-15      0.209089        102766        103175        241404   3.26094e-15
    0.0374875       288.185       288.478      0.281195       5.18717      -2.45027             0       3.78406       2.49092             0       50.1789       5.07192             0       38.9771             0             0      0.181739     1.786e-15      0.209831        102766        103176        240942   3.27229e-15
    0.0376577       288.183       288.479      0.279161       5.14853      -2.41031             0       3.81448       2.50787             0       51.2336       5.20059             0       38.4048             0             0      0.181568    1.7922e-15      0.210572        102766        103177        240480   3.28365e-15
    0.0378278       288.182       288.479      0.277128       5.10989      -2.37034             0       3.84489       2.52483             0       52.2882       5.32927             0       37.8325             0             0      0.181398    1.7984e-15      0.211314        102766        103179        240019     3.295e-15
     0.037998        288.18       288.479      0.275094       5.07125      -2.33038             0        3.8753       2.54178             0       53.3429       5.45794             0       37.2602             0             0      0.181227    1.8046e-15      0.212055        102766        103180        239557   3.30636e-15
    0.0381682       288.179       288.479      0.271301       5.04741      -2.28791             0       3.91154       2.54767             0       54.1591       5.60139             0       36.6541             0             0      0.181086   1.80857e-15      0.212668        102765        103181        239177   3.31364e-15
    0.0383383       288.177        288.48      0.267488       5.02374      -2.24541             0       3.94786       2.55344             0       54.9725       5.74502             0       36.0477             0             0      0.180946   1.81252e-15      0.213278        102765        103182        238798   3.32087e-15
    0.0385085       288.175        288.48      0.263674       5.00008      -2.20292             0       3.98417        2.5592             0       55.7858       5.88865             0       35.4412             0             0      0.180806   1.81647e-15      0.213889        102765        103184        238419   3.32811e-15
    0.0386787       288.174        288.48       0.25986       4.97641      -2.16042             0       4.02049       2.56497             0       56.5991       6.03227             0       34.8347             0             0      0.180665   1.82041e-15        0.2145        102765        103185        238039   3.33534e-15
    0.0388488       288.172       288.481      0.256046       4.95275      -2.11793             0        4.0568       2.57073             0       57.4125        6.1759             0       34.2283             0             0      0.180525   1.82436e-15       0.21511        102765        103186        237660   3.34257e-15
     0.039019       288.171       288.481      0.252123       4.93115      -2.07502             0       4.09355        2.5752             0        58.196       6.32623             0       33.6172             0             0      0.180392    1.8279e-15      0.215686        102765        103188        237291   3.34906e-15
    0.0391892       288.168       288.481      0.247339       4.92596      -2.02883             0       4.13382        2.5693             0       58.7429       6.52985             0       32.9692             0             0      0.180323   1.82821e-15      0.215986        102764        103189        237001   3.34962e-15
    0.0393594       288.166       288.481      0.242554       4.92077      -1.98264             0       4.17408        2.5634             0       59.2897       6.73346             0       32.3212             0             0      0.180254   1.82851e-15      0.216287        102764        103190        236710   3.35018e-15
    0.0395295       288.163       288.481      0.237769       4.91559      -1.93645             0       4.21434        2.5575             0       59.8366       6.93708             0       31.6731             0             0      0.180185   1.82882e-15      0.216587        102764        103192        236420   3.35074e-15
    0.0396997       288.161       288.481      0.232985        4.9104      -1.89026             0       4.25461        2.5516             0       60.3835        7.1407             0       31.0251             0             0      0.180116   1.82912e-15      0.216887        102764        103193        236129    3.3513e-15
    0.0398699       288.158        288.48        0.2282       4.90522      -1.84407             0       4.29487        2.5457             0       60.9303       7.34431             0       30.3771             0             0      0.180047   1.82943e-15      0.217187        102763        103194        235839   3.35186e-15
      0.04004       288.155        288.48      0.223529        4.9051        -1.797             0       4.33536       2.53774             0       61.4251        7.5544             0       29.7217             0             0      0.179996   1.82884e-15       0.21741        102763        103196        235570   3.35077e-15
    0.0402102       288.152        288.48      0.219229       4.92147      -1.74705             0       4.37658       2.52307             0       61.7507       7.78551             0       29.0423             0             0      0.180003   1.82532e-15      0.217379        102763        103197        235372   3.34433e-15
    0.0403804       288.148       288.479      0.214929       4.93784      -1.69711             0        4.4178        2.5084             0       62.0762       8.01662             0       28.3629             0             0       0.18001   1.82181e-15      0.217348        102763        103198        235174   3.33789e-15
    0.0405506       288.145       288.479      0.210629        4.9542      -1.64716             0       4.45902       2.49373             0       62.4018       8.24773             0       27.6835             0             0      0.180017   1.81829e-15      0.217318        102762        103200        234976   3.33145e-15
    0.0407207       288.141       288.478      0.206329       4.97057      -1.59722             0       4.50024       2.47906             0       62.7274       8.47884             0        27.004             0             0      0.180024   1.81478e-15      0.217287        102762        103201        234777   3.32501e-15
    0.0408909       288.138       288.478      0.202029       4.98693      -1.54727             0       4.54145       2.46439             0       63.0529       8.70996             0       26.3246             0             0      0.180031   1.81126e-15      0.217257        102762        103202        234579   3.31857e-15
    0.0410611       288.134       288.477      0.198101       5.01189      -1.49627             0       4.58212       2.44797             0       63.3257       8.92151             0       25.6443             0             0      0.180064   1.80634e-15      0.217113        102761        103204        234413   3.30955e-15
    0.0412312        288.13       288.476       0.19484       5.05219      -1.44337             0       4.62181       2.42842             0       63.5043       9.09812             0       24.9625             0             0      0.180143   1.79891e-15      0.216768        102761        103205        234305   3.29593e-15
    0.0414014       288.126       288.475      0.191579        5.0925      -1.39047             0       4.66149       2.40887             0       63.6829       9.27473             0       24.2806             0             0      0.180223   1.79147e-15      0.216422        102761        103207        234196   3.28231e-15
    0.0415716       288.122       288.475      0.188318        5.1328      -1.33758             0       4.70118       2.38932             0       63.8615       9.45135             0       23.5987             0             0      0.180302   1.78404e-15      0.216077        102760        103208        234088   3.26869e-15
    0.0417417       288.118       288.474      0.185057       5.17311      -1.28468             0       4.74086       2.36977             0       64.0401       9.62796             0       22.9169             0             0      0.180382   1.77661e-15      0.215732        102760        103209        233979   3.25508e-15
    0.0419119       288.114       288.473      0.181796       5.21341      -1.23178             0       4.78055       2.35022             0       64.2187       9.80457             0        22.235             0             0      0.180461   1.76917e-15      0.215386        102759        103211        233871   3.24146e-15
    0.0420821        288.11       288.472      0.179181       5.26652      -1.17802             0        4.8169       2.32931             0       64.3622       9.92128             0        21.565             0             0      0.180584   1.75931e-15      0.214853        102759        103212        233797   3.22338e-15
    0.0422523       288.106        288.47      0.177259       5.33339      -1.12332             0       4.84967       2.30694             0       64.4681       9.97372             0       20.9078             0             0      0.180753   1.74682e-15      0.214117        102759        103214        233762    3.2005e-15
    0.0424224       288.102       288.469      0.175336       5.40025      -1.06863             0       4.88244       2.28458             0        64.574       10.0262             0       20.2505             0             0      0.180922   1.73434e-15      0.213381        102758        103215        233726   3.17763e-15
    0.0425926       288.098       288.467      0.173414       5.46711      -1.01394             0       4.91521       2.26221             0       64.6798       10.0786             0       19.5933             0             0      0.181092   1.72186e-15      0.212646        102758        103216        233690   3.15476e-15
    0.0427628       288.093       288.466      0.171492       5.53397     -0.959243             0       4.94798       2.23984             0       64.7857        10.131             0       18.9361             0             0      0.181261   1.70937e-15       0.21191        102758        103218        233654   3.13189e-15
    0.0429329       288.089       288.464       0.16957       5.60083      -0.90455             0       4.98075       2.21748             0       64.8916       10.1835             0       18.2788             0             0       0.18143   1.69689e-15      0.211174        102757        103219        233618   3.10902e-15
    0.0431031       288.085       288.462       0.16863       5.68507     -0.850476             0       5.00553       2.19308             0       64.9182       10.1543             0       17.6351             0             0      0.181655   1.68143e-15      0.210194        102757        103220        233625    3.0807e-15
    0.0432733       288.081       288.459      0.168329       5.78062     -0.796807             0       5.02513       2.16736             0       64.8933        10.072             0       17.0001             0             0      0.181917   1.66404e-15      0.209055        102757        103222        233660   3.04883e-15
    0.0434434       288.077       288.457      0.168028       5.87617     -0.743137             0       5.04472       2.14163             0       64.8683       9.98965             0       16.3651             0             0      0.182179   1.64665e-15      0.207916        102756        103223        233695   3.01697e-15
    0.0436136       288.073       288.454      0.167727       5.97172     -0.689468             0       5.06431       2.11591             0       64.8433       9.90735             0         15.73             0             0      0.182441   1.62926e-15      0.206776        102756        103224        233730    2.9851e-15
    0.0437838       288.069       288.451      0.167426       6.06727     -0.635798             0        5.0839       2.09018             0       64.8184       9.82505             0        15.095             0             0      0.182703   1.61186e-15      0.205637        102756        103225        233765   2.95324e-15
     0.043954       288.066       288.449      0.167125       6.16282     -0.582128             0        5.1035       2.06446             0       64.7934       9.74274             0         14.46             0             0      0.182965   1.59447e-15      0.204498        102756        103227        233799   2.92137e-15
    0.0441241       288.063       288.445      0.167693        6.2787     -0.533988             0       5.11305         2.033             0       64.5542       9.58488             0       13.8415             0             0      0.183245   1.57681e-15      0.203284        102755        103228        233889   2.88901e-15
    0.0442943       288.061       288.441      0.168582       6.40213     -0.487898             0       5.11889       1.99942             0       64.2355       9.39898             0       13.2291             0             0      0.183531   1.55905e-15      0.202041        102755        103229        233999   2.85647e-15
    0.0444645        288.06       288.438      0.169471       6.52556     -0.441808             0       5.12472       1.96584             0       63.9168       9.21308             0       12.6167             0             0      0.183816   1.54128e-15      0.200799        102755        103231        234109   2.82392e-15
    0.0446346       288.058       288.434       0.17036         6.649     -0.395719             0       5.13055       1.93225             0       63.5981       9.02718             0       12.0042             0             0      0.184102   1.52352e-15      0.199556        102755        103232        234219   2.79138e-15
    0.0448048       288.056        288.43       0.17125       6.77243     -0.349629             0       5.13638       1.89867             0       63.2794       8.84128             0       11.3918             0             0      0.184388   1.50576e-15      0.198314        102754        103233        234330   2.75883e-15
     0.044975       288.055       288.426      0.172139       6.89586      -0.30354             0       5.14222       1.86509             0       62.9607       8.65538             0       10.7794             0             0      0.184674     1.488e-15      0.197071        102754        103234        234440   2.72629e-15
    0.0451451       288.057       288.421      0.173438       7.03389     -0.271772             0       5.13748       1.82062             0       62.3403       8.39722             0       10.2058             0             0      0.184899   1.47378e-15      0.196092        102754        103235        234595   2.70024e-15
    0.0453153       288.059       288.416      0.174808       7.17443     -0.242473             0       5.13092       1.77428             0       61.6679       8.12661             0         9.639             0             0      0.185114   1.46017e-15      0.195157        102754        103236        234759    2.6753e-15
    0.0454855       288.062       288.411      0.176179       7.31498     -0.213175             0       5.12437       1.72794             0       60.9954       7.85599             0       9.07216             0             0      0.185329   1.44656e-15      0.194223        102754        103238        234922   2.65037e-15