#           y             T         TMean   TPrime2Mean           U_x           U_y           U_z       UMean_x       UMean_y       UMean_z UPrime2Mea... UPrime2Mea... UPrime2Mea... UPrime2Mea... UPrime2Mea... UPrime2Mea...            O2           H2O          C3H8             p         pMean   pPrime2Mean           CO2
         0.04       288.276       288.382      0.110216       1.28241      -8.29355             0      -5.11292      -7.56208             0       21.2346       6.62968             0       37.2529             0             0      0.213771   1.20722e-15     0.0705605        102690        103096        224725   2.21185e-15
     0.039975       288.275       288.382      0.110352       1.29767      -8.30398             0      -5.10642      -7.56966             0       21.2679       6.53078             0        37.418             0             0      0.213758   1.20747e-15     0.0706153        102690        103096        224721   2.21231e-15
    0.0399499       288.273       288.381      0.110489       1.31294       -8.3144             0      -5.09992      -7.57724             0       21.3012       6.43189             0       37.5832             0             0      0.213746   1.20772e-15     0.0706701        102690        103096        224718   2.21277e-15
    0.0399249       288.272       288.381      0.110625       1.32821      -8.32483             0      -5.09342      -7.58481             0       21.3344       6.33299             0       37.7483             0             0      0.213733   1.20798e-15     0.0707249        102690        103095        224714   2.21323e-15
    0.0398999        288.27       288.381      0.110761       1.34348      -8.33526             0      -5.08692      -7.59239             0       21.3677       6.23409             0       37.9134             0             0      0.213721   1.20823e-15     0.0707797        102689        103095        224710    2.2137e-15
    0.0398749       288.269        288.38      0.110897       1.35874      -8.34568             0      -5.08042      -7.59997             0        21.401       6.13519             0       38.0786             0             0      0.213708   1.20848e-15     0.0708345        102689        103095        224707   2.21416e-15
    0.0398498       288.268        288.38      0.111033       1.37401      -8.35611             0      -5.07392      -7.60754             0       21.4342       6.03629             0       38.2437             0             0      0.213695   1.20873e-15     0.0708893        102689        103095        224703   2.21462e-15
    0.0398248       288.266        288.38      0.111169       1.38928      -8.36653             0      -5.06742      -7.61512             0       21.4675        5.9374             0       38.4088             0             0      0.213683   1.20898e-15     0.0709441        102689        103094        224699   2.21508e-15
    0.0397998       288.265       288.379      0.111305       1.40455      -8.37696             0      -5.06092      -7.62269             0       21.5008        5.8385             0        38.574             0             0       0.21367   1.20923e-15     0.0709989        102689        103094        224696   2.21554e-15
    0.0397748       288.263       288.379      0.111441       1.41981      -8.38739             0      -5.05442      -7.63027             0       21.5341        5.7396             0       38.7391             0             0      0.213658   1.20948e-15     0.0710537        102689        103094        224692     2.216e-15
    0.0397497       288.262       288.379      0.111577       1.43508      -8.39781             0      -5.04793      -7.63785             0       21.5673        5.6407             0       38.9042             0             0      0.213645   1.20974e-15     0.0711085        102689        103094        224688   2.21646e-15
    0.0397247        288.26       288.378      0.111714       1.45035      -8.40824             0      -5.04143      -7.64542             0       21.6006        5.5418             0       39.0693             0             0      0.213632   1.20999e-15     0.0711633        102689        103094        224685   2.21692e-15
    0.0396997       288.259       288.378       0.11185       1.46562      -8.41866             0      -5.03493        -7.653             0       21.6339       5.44291             0       39.2345             0             0       0.21362   1.21024e-15     0.0712181        102689        103093        224681   2.21738e-15
    0.0396747       288.257       288.378      0.111986       1.48088      -8.42909             0      -5.02843      -7.66058             0       21.6671       5.34401             0       39.3996             0             0      0.213607   1.21049e-15     0.0712729        102688        103093        224678   2.21784e-15
    0.0396496       288.256       288.377      0.112122       1.49615      -8.43952             0      -5.02193      -7.66815             0       21.7004       5.24511             0       39.5647             0             0      0.213595   1.21074e-15     0.0713277        102688        103093        224674    2.2183e-15
    0.0396246       288.254       288.377      0.112258       1.51142      -8.44994             0      -5.01543      -7.67573             0       21.7337       5.14621             0       39.7299             0             0      0.213582   1.21099e-15     0.0713825        102688        103093        224670   2.21876e-15
    0.0395996       288.253       288.377      0.112394       1.52668      -8.46037             0      -5.00893       -7.6833             0       21.7669       5.04731             0        39.895             0             0      0.213569   1.21124e-15     0.0714373        102688        103092        224667   2.21922e-15
    0.0395746       288.251       288.376       0.11253       1.54195      -8.47079             0      -5.00243      -7.69088             0       21.8002       4.94842             0       40.0601             0             0      0.213557    1.2115e-15     0.0714921        102688        103092        224663   2.21969e-15
    0.0395495        288.25       288.376      0.112666       1.55722      -8.48122             0      -4.99593      -7.69846             0       21.8335       4.84952             0       40.2253             0             0      0.213544   1.21175e-15      0.071547        102688        103092        224659   2.22015e-15
    0.0395245       288.249       288.376      0.112803       1.57249      -8.49165             0      -4.98943      -7.70603             0       21.8667       4.75062             0       40.3904             0             0      0.213532     1.212e-15     0.0716018        102688        103092        224656   2.22061e-15
    0.0394995       288.247       288.375      0.112939       1.58775      -8.50207             0      -4.98293      -7.71361             0          21.9       4.65172             0       40.5555             0             0      0.213519   1.21225e-15     0.0716566        102688        103092        224652   2.22107e-15
    0.0394745       288.246       288.375      0.113075       1.60302       -8.5125             0      -4.97643      -7.72119             0       21.9333       4.55283             0       40.7206             0             0      0.213506    1.2125e-15     0.0717114        102687        103091        224649   2.22153e-15
    0.0394494       288.244       288.375      0.113211       1.61829      -8.52292             0      -4.96994      -7.72876             0       21.9665       4.45393             0       40.8858             0             0      0.213494   1.21275e-15     0.0717662        102687        103091        224645   2.22199e-15
    0.0394244       288.243       288.374      0.113347       1.63356      -8.53335             0      -4.96344      -7.73634             0       21.9998       4.35503             0       41.0509             0             0      0.213481     1.213e-15      0.071821        102687        103091        224641   2.22245e-15
    0.0393994       288.241       288.374      0.113483       1.64882      -8.54378             0      -4.95694      -7.74391             0       22.0331       4.25613             0        41.216             0             0      0.213469   1.21326e-15     0.0718758        102687        103091        224638   2.22291e-15
    0.0393744        288.24       288.374      0.113619       1.66409       -8.5542             0      -4.95044      -7.75149             0       22.0663       4.15723             0       41.3812             0             0      0.213456   1.21351e-15     0.0719306        102687        103090        224634   2.22337e-15
    0.0393493       288.238       288.373      0.113755       1.67936      -8.56463             0      -4.94394      -7.75907             0       22.0996       4.05834             0       41.5463             0             0      0.213443   1.21376e-15     0.0719854        102687        103090        224630   2.22383e-15
    0.0393243       288.237       288.373      0.113891       1.69462      -8.57505             0      -4.93744      -7.76664             0       22.1329       3.95944             0       41.7114             0             0      0.213431   1.21401e-15     0.0720402        102687        103090        224627   2.22429e-15
    0.0392993       288.235       288.373      0.114028       1.70989      -8.58548             0      -4.93094      -7.77422             0       22.1662       3.86054             0       41.8766             0             0      0.213418   1.21426e-15      0.072095        102687        103090        224623   2.22475e-15
    0.0392743       288.234       288.372      0.114164       1.72516      -8.59591             0      -4.92444       -7.7818             0       22.1994       3.76164             0       42.0417             0             0      0.213406   1.21451e-15     0.0721498        102687        103090        224620   2.22521e-15
    0.0392492       288.232       288.372        0.1143       1.74043      -8.60633             0      -4.91794      -7.78937             0       22.2327       3.66274             0       42.2068             0             0      0.213393   1.21476e-15     0.0722046        102686        103089        224616   2.22567e-15
    0.0392242       288.231       288.372      0.114436       1.75569      -8.61676             0      -4.91144      -7.79695             0        22.266       3.56385             0       42.3719             0             0       0.21338   1.21502e-15     0.0722594        102686        103089        224612   2.22614e-15
    0.0391992        288.23       288.372      0.114572       1.77096      -8.62718             0      -4.90494      -7.80452             0       22.2992       3.46495             0       42.5371             0             0      0.213368   1.21527e-15     0.0723142        102686        103089        224609    2.2266e-15
    0.0391742       288.228       288.371      0.114708       1.78623      -8.63761             0      -4.89844       -7.8121             0       22.3325       3.36605             0       42.7022             0             0      0.213355   1.21552e-15      0.072369        102686        103089        224605   2.22706e-15
    0.0391491       288.227       288.371      0.114844        1.8015      -8.64804             0      -4.89195      -7.81968             0       22.3658       3.26715             0       42.8673             0             0      0.213343   1.21577e-15     0.0724238        102686        103088        224601   2.22752e-15
    0.0391241       288.225       288.371       0.11498       1.81676      -8.65846             0      -4.88545      -7.82725             0        22.399       3.16825             0       43.0325             0             0       0.21333   1.21602e-15     0.0724787        102686        103088        224598   2.22798e-15
    0.0390991       288.224        288.37      0.115116       1.83203      -8.66889             0      -4.87895      -7.83483             0       22.4323       3.06936             0       43.1976             0             0      0.213317   1.21627e-15     0.0725335        102686        103088        224594   2.22844e-15
    0.0390741       288.222        288.37      0.115253        1.8473      -8.67931             0      -4.87245      -7.84241             0       22.4656       2.97046             0       43.3627             0             0      0.213305   1.21652e-15     0.0725883        102686        103088        224591    2.2289e-15
     0.039049       288.221        288.37      0.115389       1.86256      -8.68974             0      -4.86595      -7.84998             0       22.4988       2.87156             0       43.5278             0             0      0.213292   1.21678e-15     0.0726431        102685        103088        224587   2.22936e-15
     0.039024       288.219       288.369      0.115525       1.87783      -8.70017             0      -4.85945      -7.85756             0       22.5321       2.77266             0        43.693             0             0      0.213279   1.21703e-15     0.0726979        102685        103087        224583   2.22982e-15
     0.038999       288.218       288.369      0.115659       1.89324      -8.71044             0      -4.85272        -7.865             0       22.5649       2.67437             0       43.8586             0             0      0.213267   1.21728e-15     0.0727533        102685        103087        224580   2.23028e-15
     0.038974       288.216       288.368      0.115755       1.91194      -8.71705             0      -4.84052      -7.86918             0       22.5855       2.59067             0       44.0356             0             0      0.213251   1.21751e-15     0.0728238        102685        103087        224588   2.23071e-15
    0.0389489       288.215       288.368      0.115851       1.93064      -8.72366             0      -4.82832      -7.87336             0       22.6062       2.50698             0       44.2125             0             0      0.213234   1.21775e-15     0.0728943        102685        103087        224596   2.23114e-15
    0.0389239       288.213       288.368      0.115947       1.94934      -8.73027             0      -4.81612      -7.87754             0       22.6268       2.42328             0       44.3895             0             0      0.213218   1.21798e-15     0.0729649        102685        103087        224604   2.23157e-15
    0.0388989       288.212       288.367      0.116042       1.96804      -8.73687             0      -4.80391      -7.88172             0       22.6474       2.33958             0       44.5665             0             0      0.213202   1.21822e-15     0.0730354        102685        103086        224612     2.232e-15
    0.0388739        288.21       288.367      0.116138       1.98674      -8.74348             0      -4.79171      -7.88591             0       22.6681       2.25588             0       44.7435             0             0      0.213186   1.21845e-15     0.0731059        102685        103086        224619   2.23243e-15
    0.0388488       288.209       288.367      0.116234       2.00544      -8.75009             0      -4.77951      -7.89009             0       22.6887       2.17218             0       44.9204             0             0      0.213169   1.21869e-15     0.0731764        102685        103086        224627   2.23286e-15
    0.0388238       288.207       288.366       0.11633       2.02414       -8.7567             0      -4.76731      -7.89427             0       22.7094       2.08848             0       45.0974             0             0      0.213153   1.21892e-15     0.0732469        102685        103086        224635    2.2333e-15
    0.0387988       288.206       288.366      0.116426       2.04284      -8.76331             0      -4.75511      -7.89845             0         22.73       2.00478             0       45.2744             0             0      0.213137   1.21916e-15     0.0733174        102684        103085        224643   2.23373e-15
    0.0387738       288.204       288.366      0.116521       2.06154      -8.76992             0      -4.74291      -7.90263             0       22.7507       1.92109             0       45.4514             0             0      0.213121   1.21939e-15     0.0733879        102684        103085        224651   2.23416e-15
    0.0387487       288.203       288.365      0.116617       2.08024      -8.77652             0       -4.7307      -7.90681             0       22.7713       1.83739             0       45.6283             0             0      0.213105   1.21963e-15     0.0734585        102684        103085        224659   2.23459e-15
    0.0387237       288.201       288.365      0.116713       2.09894      -8.78313             0       -4.7185        -7.911             0        22.792       1.75369             0       45.8053             0             0      0.213088   1.21986e-15      0.073529        102684        103085        224667   2.23502e-15
    0.0386987         288.2       288.365      0.116809       2.11764      -8.78974             0       -4.7063      -7.91518             0       22.8126       1.66999             0       45.9823             0             0      0.213072    1.2201e-15     0.0735995        102684        103085        224674   2.23545e-15
    0.0386737       288.198       288.364      0.116905       2.13634      -8.79635             0       -4.6941      -7.91936             0       22.8332       1.58629             0       46.1593             0             0      0.213056   1.22033e-15       0.07367        102684        103084        224682   2.23588e-15
    0.0386486       288.197       288.364         0.117       2.15504      -8.80296             0       -4.6819      -7.92354             0       22.8539       1.50259             0       46.3363             0             0       0.21304   1.22057e-15     0.0737405        102684        103084        224690   2.23631e-15
    0.0386236       288.195       288.364      0.117096       2.17374      -8.80957             0      -4.66969      -7.92772             0       22.8745       1.41889             0       46.5132             0             0      0.213023    1.2208e-15      0.073811        102684        103084        224698   2.23674e-15
    0.0385986       288.194       288.363      0.117192       2.19245      -8.81618             0      -4.65749       -7.9319             0       22.8952        1.3352             0       46.6902             0             0      0.213007   1.22104e-15     0.0738815        102684        103084        224706   2.23717e-15
    0.0385736       288.192       288.363      0.117288       2.21115      -8.82278             0      -4.64529      -7.93608             0       22.9158        1.2515             0       46.8672             0             0      0.212991   1.22127e-15     0.0739521        102683        103084        224714    2.2376e-15
    0.0385485       288.191       288.363      0.117384       2.22985      -8.82939             0      -4.63309      -7.94027             0       22.9365        1.1678             0       47.0442             0             0      0.212975   1.22151e-15     0.0740226        102683        103083        224722   2.23803e-15
    0.0385235       288.189       288.362      0.117479       2.24855        -8.836             0      -4.62089      -7.94445             0       22.9571        1.0841             0       47.2211             0             0      0.212959   1.22174e-15     0.0740931        102683        103083        224729   2.23846e-15
    0.0384985       288.188       288.362      0.117575       2.26725      -8.84261             0      -4.60868      -7.94863             0       22.9777        1.0004             0       47.3981             0             0      0.212942   1.22198e-15     0.0741636        102683        103083        224737   2.23889e-15
    0.0384735       288.186       288.361      0.117671       2.28595      -8.84922             0      -4.59648      -7.95281             0       22.9984      0.916702             0       47.5751             0             0      0.212926   1.22221e-15     0.0742341        102683        103083        224745   2.23932e-15
    0.0384484       288.185       288.361      0.117767       2.30465      -8.85583             0      -4.58428      -7.95699             0        23.019      0.833003             0       47.7521             0             0       0.21291   1.22245e-15     0.0743046        102683        103083        224753   2.23975e-15
    0.0384234       288.183       288.361      0.117862       2.32335      -8.86244             0      -4.57208      -7.96117             0       23.0397      0.749305             0        47.929             0             0      0.212894   1.22268e-15     0.0743751        102683        103082        224761   2.24019e-15
    0.0383984       288.182        288.36      0.117958       2.34205      -8.86904             0      -4.55988      -7.96536             0       23.0603      0.665606             0        48.106             0             0      0.212877   1.22292e-15     0.0744457        102683        103082        224769   2.24062e-15
    0.0383734        288.18        288.36      0.118054       2.36075      -8.87565             0      -4.54767      -7.96954             0        23.081      0.581907             0        48.283             0             0      0.212861   1.22315e-15     0.0745162        102683        103082        224777   2.24105e-15
    0.0383483       288.179        288.36       0.11815       2.37945      -8.88226             0      -4.53547      -7.97372             0       23.1016      0.498209             0         48.46             0             0      0.212845   1.22339e-15     0.0745867        102683        103082        224785   2.24148e-15
    0.0383233       288.177       288.359      0.118246       2.39815      -8.88887             0      -4.52327       -7.9779             0       23.1223       0.41451             0        48.637             0             0      0.212829   1.22362e-15     0.0746572        102682        103082        224792   2.24191e-15
    0.0382983       288.176       288.359      0.118341       2.41685      -8.89548             0      -4.51107      -7.98208             0       23.1429      0.330812             0       48.8139             0             0      0.212813   1.22386e-15     0.0747277        102682        103081        224800   2.24234e-15
    0.0382733       288.174       288.359      0.118437       2.43555      -8.90209             0      -4.49887      -7.98626             0       23.1635      0.247113             0       48.9909             0             0      0.212796   1.22409e-15     0.0747982        102682        103081        224808   2.24277e-15
    0.0382482       288.173       288.358      0.118533       2.45425      -8.90869             0      -4.48666      -7.99045             0       23.1842      0.163414             0       49.1679             0             0       0.21278   1.22433e-15     0.0748688        102682        103081        224816    2.2432e-15
    0.0382232       288.171       288.358      0.118629       2.47295       -8.9153             0      -4.47446      -7.99463             0       23.2048     0.0797158             0       49.3449             0             0      0.212764   1.22456e-15     0.0749393        102682        103081        224824   2.24363e-15
    0.0381982        288.17       288.358      0.118725       2.49165      -8.92191             0      -4.46226      -7.99881             0       23.2255   -0.00398286             0       49.5218             0             0      0.212748    1.2248e-15     0.0750098        102682        103080        224832   2.24406e-15
    0.0381732       288.168       288.357       0.11882       2.51035      -8.92852             0      -4.45006      -8.00299             0       23.2461    -0.0876815             0       49.6988             0             0      0.212732   1.22503e-15     0.0750803        102682        103080        224840   2.24449e-15
    0.0381481       288.167       288.357      0.118916       2.52905      -8.93513             0      -4.43786      -8.00717             0       23.2668      -0.17138             0       49.8758             0             0      0.212715   1.22527e-15     0.0751508        102682        103080        224847   2.24492e-15
    0.0381231       288.165       288.357      0.119012       2.54776      -8.94174             0      -4.42565      -8.01135             0       23.2874     -0.255079             0       50.0528             0             0      0.212699   1.22551e-15     0.0752213        102682        103080        224855   2.24535e-15
    0.0380981       288.164       288.356      0.119108       2.56646      -8.94835             0      -4.41345      -8.01553             0        23.308     -0.338777             0       50.2297             0             0      0.212683   1.22574e-15     0.0752918        102682        103080        224863   2.24578e-15
    0.0380731       288.162       288.356      0.119204       2.58516      -8.95495             0      -4.40125      -8.01972             0       23.3287     -0.422476             0       50.4067             0             0      0.212667   1.22598e-15     0.0753624        102681        103079        224871   2.24621e-15
     0.038048       288.161       288.355      0.119299       2.60386      -8.96156             0      -4.38905       -8.0239             0       23.3493     -0.506175             0       50.5837             0             0       0.21265   1.22621e-15     0.0754329        102681        103079        224879   2.24665e-15
     0.038023       288.159       288.355      0.119395       2.62256      -8.96817             0      -4.37685      -8.02808             0         23.37     -0.589873             0       50.7607             0             0      0.212634   1.22645e-15     0.0755034        102681        103079        224887   2.24708e-15
     0.037998       288.158       288.355      0.119487       2.64144       -8.9747             0      -4.36417      -8.03193             0       23.3886     -0.671875             0        50.938             0             0      0.212617   1.22669e-15     0.0755781        102681        103079        224895   2.24752e-15
     0.037973       288.157       288.355      0.119529       2.66248      -8.98029             0      -4.34602      -8.03199             0       23.3836     -0.734361             0       51.1188             0             0      0.212589     1.227e-15     0.0757006        102681        103079        224913   2.24809e-15
    0.0379479       288.155       288.354      0.119572       2.68352      -8.98588             0      -4.32787      -8.03205             0       23.3787     -0.796847             0       51.2997             0             0      0.212561   1.22731e-15     0.0758232        102681        103078        224931   2.24866e-15
    0.0379229       288.154       288.354      0.119614       2.70456      -8.99147             0      -4.30973      -8.03212             0       23.3738     -0.859334             0       51.4806             0             0      0.212532   1.22762e-15     0.0759458        102681        103078        224948   2.24923e-15
    0.0378979       288.152       288.354      0.119657       2.72559      -8.99706             0      -4.29158      -8.03218             0       23.3689      -0.92182             0       51.6615             0             0      0.212504   1.22793e-15     0.0760683        102681        103078        224966    2.2498e-15
    0.0378729       288.151       288.353      0.119699       2.74663      -9.00266             0      -4.27343      -8.03224             0       23.3639     -0.984306             0       51.8424             0             0      0.212476   1.22824e-15     0.0761909        102681        103078        224984   2.25037e-15
    0.0378478        288.15       288.353      0.119742       2.76767      -9.00825             0      -4.25528       -8.0323             0        23.359      -1.04679             0       52.0232             0             0      0.212448   1.22855e-15     0.0763134        102681        103078        225001   2.25094e-15
    0.0378228       288.148       288.353      0.119784        2.7887      -9.01384             0      -4.23714      -8.03236             0       23.3541      -1.10928             0       52.2041             0             0       0.21242   1.22886e-15      0.076436        102680        103078        225019   2.25151e-15
    0.0377978       288.147       288.353      0.119827       2.80974      -9.01943             0      -4.21899      -8.03242             0       23.3492      -1.17177             0        52.385             0             0      0.212392   1.22918e-15     0.0765586        102680        103077        225037   2.25208e-15
    0.0377728       288.146       288.352      0.119869       2.83078      -9.02502             0      -4.20084      -8.03249             0       23.3442      -1.23425             0       52.5659             0             0      0.212363   1.22949e-15     0.0766811        102680        103077        225054   2.25265e-15
    0.0377477       288.144       288.352      0.119912       2.85181      -9.03061             0      -4.18269      -8.03255             0       23.3393      -1.29674             0       52.7467             0             0      0.212335    1.2298e-15     0.0768037        102680        103077        225072   2.25322e-15
    0.0377227       288.143       288.352      0.119954       2.87285      -9.03621             0      -4.16454      -8.03261             0       23.3344      -1.35922             0       52.9276             0             0      0.212307   1.23011e-15     0.0769263        102680        103077        225090   2.25379e-15