#           y             T         TMean   TPrime2Mean           U_x           U_y           U_z       UMean_x       UMean_y       UMean_z UPrime2Mea... UPrime2Mea... UPrime2Mea... UPrime2Mea... UPrime2Mea... UPrime2Mea...            O2           H2O          C3H8             p         pMean   pPrime2Mean           CO2
         0.02        291.16       288.096      0.168395       21.2072      -6.59854             0       21.7721     -0.936388             0       41.2676      -2.43091             0       20.1362             0             0      0.194627   7.34937e-12      0.153797        102616        103136        173135   1.34654e-11
    0.0201677        290.85       288.092      0.161567       21.2988      -6.55354             0       21.7801     -0.916918             0       41.1027      -1.64072             0       20.4882             0             0      0.197656   6.41179e-12      0.140627        102620        103135        173714   1.17476e-11
    0.0203353        290.54       288.088       0.15474       21.3904      -6.50855             0        21.788     -0.897448             0       40.9377     -0.850528             0       20.8403             0             0      0.200685    5.4742e-12      0.127457        102625        103135        174293   1.00298e-11
     0.020503        290.23       288.084      0.147912       21.4821      -6.46356             0        21.796     -0.877979             0       40.7727    -0.0603386             0       21.1923             0             0      0.203714   4.53662e-12      0.114287        102630        103134        174871   8.31194e-12
    0.0206707       289.919        288.08      0.141085       21.5737      -6.41856             0       21.8039     -0.858509             0       40.6077      0.729851             0       21.5443             0             0      0.206743   3.59904e-12      0.101117        102634        103134        175450   6.59411e-12
    0.0208383       289.609       288.076      0.134257       21.6653      -6.37357             0       21.8119     -0.839039             0       40.4427       1.52004             0       21.8964             0             0      0.209772   2.66146e-12     0.0879469        102639        103133        176029   4.87629e-12
     0.021006       289.305       288.072      0.127533       21.7505      -6.32723             0       21.8141     -0.819175             0        40.283        2.3144             0       22.2501             0             0      0.212757    1.7485e-12     0.0749685        102643        103132        176609   3.20358e-12
    0.0211737       289.167       288.074      0.123591       21.6639      -6.24467             0       21.6631     -0.788701             0        40.266       3.22088             0       22.6506             0             0      0.214556   1.49832e-12     0.0671488        102648        103132        177219    2.7452e-12
    0.0213413       289.029       288.077      0.119649       21.5772      -6.16212             0        21.512     -0.758226             0       40.2489       4.12736             0        23.051             0             0      0.216354   1.24814e-12     0.0593291        102654        103131        177828   2.28682e-12
     0.021509       288.892       288.079      0.115707       21.4905      -6.07956             0       21.3609     -0.727751             0       40.2319       5.03385             0       23.4515             0             0      0.218153   9.97958e-13     0.0515094        102659        103131        178438   1.82845e-12
    0.0216767       288.754       288.081      0.111764       21.4038        -5.997             0       21.2099     -0.697277             0       40.2148       5.94033             0       23.8519             0             0      0.219951   7.47778e-13     0.0436897        102664        103130        179048   1.37007e-12
    0.0218443       288.616       288.084      0.107822       21.3172      -5.91444             0       21.0588     -0.666802             0       40.1978       6.84681             0       24.2524             0             0       0.22175   4.97597e-13       0.03587        102669        103129        179658   9.11691e-13
     0.022012       288.486       288.086      0.104018       21.2249      -5.83474             0        20.897     -0.637591             0       40.1733       7.74597             0       24.6579             0             0      0.223459   2.62531e-13     0.0284382        102674        103129        180273   4.81005e-13
    0.0221797       288.452       288.093      0.102004       21.0596      -5.79214             0       20.5959     -0.624757             0       40.0516        8.5502             0       25.1287             0             0      0.224012   2.23317e-13     0.0260336        102679        103128        180945   4.09158e-13
    0.0223473       288.419         288.1     0.0999891       20.8944      -5.74955             0       20.2948     -0.611924             0         39.93       9.35442             0       25.5996             0             0      0.224565   1.84103e-13      0.023629        102684        103128        181618    3.3731e-13
     0.022515       288.385       288.106     0.0979745       20.7292      -5.70695             0       19.9937      -0.59909             0       39.8084       10.1586             0       26.0704             0             0      0.225118   1.44889e-13     0.0212244        102689        103127        182290   2.65463e-13
    0.0226827       288.352       288.113     0.0959599       20.5639      -5.66435             0       19.6926     -0.586257             0       39.6867       10.9629             0       26.5413             0             0      0.225671   1.05675e-13     0.0188197        102694        103126        182963   1.93616e-13
    0.0228504       288.318       288.119     0.0939453       20.3987      -5.62175             0       19.3915     -0.573423             0       39.5651       11.7671             0       27.0121             0             0      0.226225   6.64608e-14     0.0164151        102699        103126        183636   1.21769e-13
     0.023018       288.287       288.126     0.0921584       20.2156      -5.57979             0       19.0789     -0.564274             0       39.4111       12.5395             0       27.5067             0             0      0.226695   3.09761e-14     0.0143701        102704        103125        184317    5.6754e-14
    0.0231857       288.277       288.136     0.0922626        19.884      -5.54312             0         18.67     -0.585724             0       38.9887       13.0473             0       28.1987             0             0      0.226478   2.64654e-14     0.0153113        102708        103125        185069   4.84895e-14
    0.0233534       288.267       288.145     0.0923667       19.5524      -5.50644             0       18.2612     -0.607174             0       38.5662       13.5551             0       28.8907             0             0      0.226262   2.19547e-14     0.0162525        102713        103124        185821   4.02251e-14
     0.023521       288.257       288.155     0.0924709       19.2209      -5.46977             0       17.8524     -0.628625             0       38.1437       14.0629             0       29.5827             0             0      0.226045   1.74439e-14     0.0171937        102718        103123        186573   3.19606e-14
    0.0236887       288.247       288.164      0.092575       18.8893      -5.43309             0       17.4436     -0.650075             0       37.7212       14.5707             0       30.2747             0             0      0.225829   1.29332e-14     0.0181349        102722        103123        187325   2.36961e-14
    0.0238564       288.237       288.173     0.0926792       18.5577      -5.39642             0       17.0348     -0.671526             0       37.2987       15.0785             0       30.9667             0             0      0.225613   8.42249e-15     0.0190761        102727        103122        188078   1.54316e-14
     0.024024       288.227       288.183     0.0929767       18.1841      -5.32041             0       16.6274     -0.699207             0       36.9204       15.5354             0       31.6933             0             0      0.225277    4.4781e-15     0.0205367        102731        103122        188850   8.20472e-15
    0.0241917       288.215       288.193     0.0944303       17.5591      -5.00928             0       16.2285     -0.764143             0       36.8059        15.688             0       32.6264             0             0      0.224226   3.91999e-15     0.0251027        102736        103121        189744   7.18215e-15
    0.0243594       288.204       288.203     0.0958838       16.9341      -4.69814             0       15.8297     -0.829078             0       36.6915       15.8405             0       33.5595             0             0      0.223176   3.36188e-15     0.0296687        102740        103120        190638   6.15958e-15
     0.024527       288.193       288.213     0.0973374       16.3091        -4.387             0       15.4308     -0.894014             0       36.5771       15.9931             0       34.4926             0             0      0.222126   2.80376e-15     0.0342347        102744        103120        191533   5.13702e-15
    0.0246947       288.182       288.223      0.098791       15.6841      -4.07586             0        15.032      -0.95895             0       36.4626       16.1457             0       35.4257             0             0      0.221076   2.24565e-15     0.0388007        102748        103119        192427   4.11445e-15
    0.0248624       288.171       288.233      0.100245       15.0591      -3.76472             0       14.6331      -1.02389             0       36.3482       16.2982             0       36.3588             0             0      0.220026   1.68754e-15     0.0433667        102753        103118        193321   3.09188e-15
      0.02503       288.162       288.243      0.101706       14.4307      -3.46931             0        14.254      -1.09511             0       36.2463       16.4289             0       37.3314             0             0      0.218861   1.22072e-15     0.0484289        102757        103118        194248   2.23658e-15
    0.0251977        288.16       288.251      0.103206       13.7868        -3.246             0       13.9652      -1.19515             0       36.2021       16.4591             0       38.4848             0             0      0.217174   1.17232e-15     0.0557651        102759        103117        195327   2.14791e-15
    0.0253654       288.158       288.259      0.104705       13.1429      -3.02269             0       13.6764       -1.2952             0       36.1579       16.4894             0       39.6383             0             0      0.215487   1.12393e-15     0.0631012        102761        103115        196407   2.05925e-15
     0.025533       288.156       288.267      0.106205        12.499      -2.79938             0       13.3876      -1.39524             0       36.1137       16.5196             0       40.7918             0             0      0.213799   1.07553e-15     0.0704374        102763        103114        197486   1.97058e-15
    0.0257007       288.155       288.275      0.107704       11.8551      -2.57607             0       13.0988      -1.49529             0       36.0696       16.5498             0       41.9452             0             0      0.212112   1.02714e-15     0.0777736        102765        103113        198565   1.88191e-15
    0.0258684       288.153       288.283      0.109204       11.2112      -2.35276             0       12.8101      -1.59533             0       36.0254       16.5801             0       43.0987             0             0      0.210425   9.78747e-16     0.0851098        102767        103112        199644   1.79325e-15
     0.026036       288.153        288.29      0.110555       10.6135       -2.1974             0       12.5355      -1.69901             0       35.8681       16.5991             0       44.2896             0             0      0.208838   9.45731e-16     0.0920089        102769        103111        200767   1.73275e-15
    0.0262037       288.163       288.293      0.111362       10.1848      -2.29026             0       12.3125      -1.81599             0       35.2981       16.5773             0       45.6169             0             0      0.207618   9.68883e-16     0.0973119        102769        103109        202052   1.77517e-15
    0.0263714       288.172       288.297       0.11217       9.75612      -2.38312             0       12.0896      -1.93297             0        34.728       16.5555             0       46.9443             0             0      0.206399   9.92036e-16      0.102615        102770        103108        203336   1.81759e-15
     0.026539       288.181       288.301      0.112978       9.32741      -2.47599             0       11.8667      -2.04995             0        34.158       16.5337             0       48.2716             0             0      0.205179   1.01519e-15      0.107918        102770        103106        204621   1.86001e-15
    0.0267067       288.191       288.304      0.113786       8.89871      -2.56885             0       11.6438      -2.16693             0       33.5879       16.5119             0        49.599             0             0      0.203959   1.03834e-15      0.113221        102770        103105        205906   1.90243e-15
    0.0268744         288.2       288.308      0.114593       8.47001      -2.66171             0       11.4209      -2.28391             0       33.0178       16.4901             0       50.9263             0             0       0.20274   1.06149e-15      0.118524        102770        103103        207190   1.94485e-15
     0.027042       288.209       288.311      0.115335       8.07222       -2.7711             0       11.1913      -2.40159             0       32.3946       16.4305             0       52.2885             0             0      0.201746   1.08165e-15      0.122844        102770        103102        208504   1.98178e-15
    0.0272097       288.217       288.312      0.115881       7.76682      -2.92987             0       10.9418      -2.52137             0       31.6124       16.2579             0       53.7546             0             0      0.201427   1.09283e-15      0.124228        102769        103100        209905   2.00227e-15
    0.0273774       288.225       288.313      0.116426       7.46142      -3.08864             0       10.6923      -2.64116             0       30.8302       16.0854             0       55.2207             0             0      0.201109   1.10402e-15      0.125613        102768        103098        211307   2.02276e-15
     0.027545       288.232       288.315      0.116971       7.15601      -3.24742             0       10.4427      -2.76094             0       30.0481       15.9128             0       56.6868             0             0      0.200791    1.1152e-15      0.126997        102767        103096        212708   2.04326e-15
    0.0277127        288.24       288.316      0.117516       6.85061      -3.40619             0       10.1932      -2.88072             0       29.2659       15.7402             0       58.1529             0             0      0.200472   1.12639e-15      0.128381        102766        103095        214109   2.06375e-15
    0.0278804       288.248       288.317      0.118062        6.5452      -3.56497             0       9.94365      -3.00051             0       28.4838       15.5676             0        59.619             0             0      0.200154   1.13757e-15      0.129766        102765        103093        215510   2.08425e-15
     0.028048       288.254       288.318      0.118598       6.26805      -3.74754             0       9.68807      -3.12178             0       27.6776       15.3446             0       61.0783             0             0      0.199987   1.14847e-15      0.130493        102764        103091        216887   2.10422e-15
    0.0282157       288.255       288.319      0.119112       6.06125      -3.98934             0       9.41745      -3.24678             0       26.8118       14.9961             0       62.5207             0             0      0.200196   1.15866e-15      0.129584        102762        103089        218203   2.12288e-15
    0.0283834       288.256        288.32      0.119626       5.85444      -4.23115             0       9.14682      -3.37178             0       25.9459       14.6476             0        63.963             0             0      0.200405   1.16885e-15      0.128675        102760        103087        219519   2.14155e-15
    0.0285511       288.257       288.321       0.12014       5.64763      -4.47295             0       8.87619      -3.49677             0         25.08       14.2991             0       65.4054             0             0      0.200614   1.17904e-15      0.127766        102758        103085        220835   2.16022e-15
    0.0287187       288.258       288.322      0.120654       5.44082      -4.71476             0       8.60557      -3.62177             0       24.2142       13.9506             0       66.8477             0             0      0.200823   1.18923e-15      0.126857        102755        103083        222151   2.17888e-15
    0.0288864       288.259       288.323      0.121168       5.23401      -4.95657             0       8.33494      -3.74677             0       23.3483        13.602             0       68.2901             0             0      0.201032   1.19942e-15      0.125948        102753        103081        223467   2.19755e-15
    0.0290541       288.258       288.324      0.121575       5.04505      -5.20609             0       8.06104       -3.8726             0       22.5095       13.1909             0        69.653             0             0        0.2013   1.20867e-15      0.124784        102751        103079        224691   2.21451e-15
    0.0292217       288.254       288.324      0.121756       4.89357      -5.47182             0       7.78027       -4.0002             0       21.7274       12.6482             0       70.8491             0             0      0.201691   1.21597e-15      0.123081        102748        103078        225719   2.22789e-15
    0.0293894       288.251       288.325      0.121938        4.7421      -5.73755             0        7.4995       -4.1278             0       20.9453       12.1055             0       72.0451             0             0      0.202083   1.22327e-15      0.121379        102746        103076        226748   2.24126e-15
    0.0295571       288.247       288.326      0.122119       4.59063      -6.00329             0       7.21873      -4.25539             0       20.1632       11.5628             0       73.2411             0             0      0.202474   1.23057e-15      0.119677        102743        103074        227776   2.25464e-15
    0.0297247       288.243       288.326      0.122301       4.43916      -6.26902             0       6.93796      -4.38299             0       19.3811       11.0201             0       74.4372             0             0      0.202866   1.23787e-15      0.117975        102740        103073        228804   2.26801e-15
    0.0298924       288.239       288.327      0.122482       4.28768      -6.53475             0       6.65718      -4.51059             0        18.599       10.4774             0       75.6332             0             0      0.203257   1.24517e-15      0.116273        102737        103071        229833   2.28139e-15
    0.0300601       288.236       288.328      0.122563       4.16021      -6.80131             0        6.3731       -4.6368             0       17.9812       9.86397             0       76.6889             0             0      0.203605   1.25057e-15      0.114759        102734        103069        230711   2.29128e-15
    0.0302277       288.233       288.328      0.122465       4.07575      -7.06936             0        6.0831      -4.76052             0       17.6576       9.12377             0       77.4931             0             0      0.203876   1.25256e-15      0.113583        102731        103068        231318   2.29493e-15
    0.0303954       288.231       288.329      0.122366       3.99129       -7.3374             0       5.79309      -4.88425             0        17.334       8.38356             0       78.2974             0             0      0.204146   1.25455e-15      0.112407        102728        103066        231926   2.29857e-15
    0.0305631       288.229       288.329      0.122267       3.90682      -7.60544             0       5.50308      -5.00797             0       17.0104       7.64336             0       79.1016             0             0      0.204417   1.25654e-15      0.111231        102725        103065        232534   2.30222e-15
    0.0307307       288.226        288.33      0.122168       3.82236      -7.87348             0       5.21307       -5.1317             0       16.6868       6.90315             0       79.9059             0             0      0.204687   1.25854e-15      0.110055        102721        103064        233142   2.30587e-15
    0.0308984       288.224        288.33      0.122069       3.73789      -8.14152             0       4.92307      -5.25542             0       16.3632       6.16295             0       80.7101             0             0      0.204958   1.26053e-15      0.108879        102718        103062        233750   2.30952e-15
    0.0310661       288.222       288.331      0.121972       3.68371      -8.39843             0       4.63378      -5.37557             0       16.2243       5.40857             0       81.3371             0             0      0.205161   1.26198e-15      0.107994        102715        103061        234199   2.31218e-15
    0.0312337       288.222       288.331      0.121877       3.67609      -8.63821             0        4.3456      -5.49022             0       16.3694       4.63241             0       81.6917             0             0      0.205262   1.26259e-15      0.107558        102712        103060        234403    2.3133e-15
    0.0314014       288.222       288.332      0.121783       3.66847      -8.87799             0       4.05742      -5.60486             0       16.5145       3.85624             0       82.0462             0             0      0.205362   1.26321e-15      0.107121        102708        103059        234608   2.31443e-15
    0.0315691       288.221       288.332      0.121688       3.66085      -9.11778             0       3.76924      -5.71951             0       16.6596       3.08007             0       82.4007             0             0      0.205463   1.26382e-15      0.106684        102705        103058        234813   2.31556e-15
    0.0317367       288.221       288.332      0.121594       3.65323      -9.35756             0       3.48106      -5.83416             0       16.8047       2.30391             0       82.7552             0             0      0.205563   1.26444e-15      0.106248        102702        103058        235018   2.31668e-15
    0.0319044       288.221       288.333      0.121499       3.64561      -9.59734             0       3.19288       -5.9488             0       16.9498       1.52774             0       83.1097             0             0      0.205663   1.26505e-15      0.105811        102699        103057        235223   2.31781e-15
    0.0320721        288.22       288.333        0.1214       3.66456      -9.81064             0       2.91255      -6.05917             0       17.1827      0.816524             0       83.2871             0             0      0.205731   1.26555e-15      0.105516        102696        103056        235299   2.31873e-15
    0.0322397       288.219       288.333      0.121295       3.71876      -9.98879             0       2.64266      -6.16384             0        17.532      0.191459             0       83.2295             0             0      0.205756   1.26591e-15      0.105409        102693        103055        235203   2.31939e-15
    0.0324074       288.217       288.333       0.12119       3.77296       -10.167             0       2.37276      -6.26852             0       17.8813     -0.433605             0        83.172             0             0       0.20578   1.26627e-15      0.105303        102690        103055        235108   2.32004e-15
    0.0325751       288.216       288.333      0.121084       3.82716      -10.3451             0       2.10287       -6.3732             0       18.2307      -1.05867             0       83.1145             0             0      0.205805   1.26663e-15      0.105196        102688        103054        235013   2.32069e-15
    0.0327427       288.214       288.333      0.120979       3.88136      -10.5233             0       1.83297      -6.47787             0         18.58      -1.68373             0        83.057             0             0       0.20583   1.26698e-15      0.105089        102685        103054        234918   2.32135e-15
    0.0329104       288.213       288.333      0.120874       3.93556      -10.7014             0       1.56307      -6.58255             0       18.9294       -2.3088             0       82.9995             0             0      0.205854   1.26734e-15      0.104982        102682        103053        234822     2.322e-15
    0.0330781       288.211       288.332      0.120784       3.99275      -10.8413             0       1.30541      -6.68146             0       19.2708      -2.80779             0       82.7857             0             0      0.205883    1.2675e-15      0.104857        102680        103053        234656   2.32229e-15
    0.0332457       288.208       288.332      0.120712       4.05336      -10.9373             0       1.06178      -6.77376             0       19.6032      -3.16213             0       82.3927             0             0      0.205916   1.26743e-15      0.104712        102678        103052        234407   2.32217e-15
    0.0334134       288.205       288.331      0.120641       4.11397      -11.0333             0      0.818144      -6.86606             0       19.9356      -3.51647             0       81.9996             0             0       0.20595   1.26736e-15      0.104566        102676        103052        234158   2.32204e-15
    0.0335811       288.203       288.331      0.120569       4.17458      -11.1292             0      0.574513      -6.95835             0        20.268      -3.87081             0       81.6066             0             0      0.205983   1.26729e-15       0.10442        102675        103052        233909   2.32192e-15
    0.0337487         288.2       288.331      0.120497       4.23519      -11.2252             0      0.330881      -7.05065             0       20.6004      -4.22515             0       81.2136             0             0      0.206017   1.26722e-15      0.104274        102673        103052        233660   2.32179e-15
    0.0339164       288.197        288.33      0.120426        4.2958      -11.3212             0       0.08725      -7.14294             0       20.9328      -4.57948             0       80.8206             0             0       0.20605   1.26716e-15      0.104129        102671        103052        233411   2.32167e-15
    0.0340841       288.195        288.33      0.120377       4.33064      -11.3795             0     -0.143113       -7.2271             0       21.1999      -4.77974             0       80.2965             0             0      0.206108   1.26664e-15      0.103877        102670        103052        233138   2.32072e-15
    0.0342518       288.192       288.329      0.120352       4.33985      -11.4005             0     -0.360287      -7.30316             0        21.402      -4.82683             0       79.6421             0             0      0.206191   1.26568e-15      0.103519        102669        103052        232841   2.31897e-15
    0.0344194       288.189       288.329      0.120326       4.34906      -11.4214             0      -0.57746      -7.37923             0       21.6042      -4.87392             0       78.9878             0             0      0.206273   1.26473e-15      0.103162        102669        103052        232544   2.31721e-15
    0.0345871       288.187       288.328      0.120301       4.35828      -11.4423             0     -0.794634      -7.45529             0       21.8064      -4.92101             0       78.3334             0             0      0.206355   1.26377e-15      0.102804        102668        103052        232248   2.31546e-15
    0.0347548       288.184       288.328      0.120275       4.36749      -11.4632             0      -1.01181      -7.53136             0       22.0085      -4.96811             0       77.6791             0             0      0.206437   1.26281e-15      0.102447        102668        103053        231951   2.31371e-15
    0.0349224       288.182       288.327       0.12025        4.3767      -11.4841             0      -1.22898      -7.60742             0       22.2107       -5.0152             0       77.0248             0             0      0.206519   1.26185e-15      0.102089        102667        103053        231654   2.31195e-15
    0.0350901        288.18       288.327      0.120287        4.3443      -11.4788             0      -1.43435      -7.67266             0       22.3421      -4.92665             0       76.2509             0             0      0.206651   1.26033e-15      0.101517        102667        103053        231368   2.30916e-15
    0.0352578       288.178       288.326      0.120377       4.27607      -11.4509             0      -1.62957      -7.72857             0       22.4125      -4.72129             0       75.3741             0             0      0.206825   1.25832e-15      0.100761        102667        103054        231089   2.30548e-15