#           y             T         TMean   TPrime2Mean           U_x           U_y           U_z       UMean_x       UMean_y       UMean_z UPrime2Mea... UPrime2Mea... UPrime2Mea... UPrime2Mea... UPrime2Mea... UPrime2Mea...            O2           H2O          C3H8             p         pMean   pPrime2Mean           CO2
            0       287.871       288.343      0.232239       18.3336             0             0       13.5718             0             0       25.3001             0             0             0             0             0      0.228717   7.60492e-17    0.00557946        102579        103222        236064   1.39336e-16
  0.000500501       287.873       288.348      0.233688       18.3268     0.0275792             0       13.5844    0.00827771             0       25.3126    -0.0330719             0      0.069297             0             0       0.22857   8.01435e-17    0.00621522        102579        103222        236072   1.46838e-16
     0.001001       287.876       288.353      0.235142       18.3199     0.0551551             0        13.597     0.0165572             0       25.3253      -0.06613             0      0.138774             0             0      0.228424   8.42508e-17    0.00685302        102579        103222        236080   1.54363e-16
    0.0015015       287.879       288.365      0.239123       18.3008     0.0811375             0       13.6251      0.025732             0       25.4322    -0.0922933             0      0.298276             0             0      0.228044   9.48103e-17    0.00850322        102579        103222        236071    1.7371e-16
     0.002002       287.882       288.376       0.24312       18.2815      0.107103             0       13.6533      0.034901             0       25.5399     -0.118546             0      0.458212             0             0      0.227663   1.05393e-16      0.010159        102580        103221        236061     1.931e-16
    0.0025025       287.884       288.386      0.251027       18.2405      0.128881             0       13.6922     0.0426391             0       25.8334     -0.167117             0      0.726564             0             0      0.226966   1.21833e-16     0.0131911        102580        103221        236013    2.2322e-16
     0.003003       287.887       288.395      0.258934       18.1994      0.150641             0       13.7312     0.0503484             0       26.1282     -0.216123             0      0.995687             0             0      0.226268   1.38285e-16     0.0162255        102580        103221        235964   2.53365e-16
    0.0035035       287.877       288.401      0.267071       18.1398      0.169451             0       13.7882     0.0532747             0       26.6255     -0.337264             0       1.39245             0             0      0.225483    1.5697e-16     0.0196384        102581        103220        235844   2.87599e-16
     0.004004       287.868       288.406      0.275126       18.0802       0.18824             0       13.8453      0.056161             0       27.1235     -0.459139             0       1.79027             0             0      0.224697   1.75691e-16     0.0230582        102581        103220        235723   3.21899e-16
    0.0045045       287.836       288.412      0.273043       18.0182      0.204304             0        13.909     0.0541008             0       27.7107      -0.67202             0       2.31869             0             0      0.223716   1.98849e-16     0.0273221        102582        103219        235527   3.64328e-16
   0.00500501       287.805       288.417      0.270866        17.956      0.220364             0       13.9723     0.0520309             0       28.2956     -0.885232             0       2.84803             0             0      0.222731   2.22079e-16     0.0316058        102582        103218        235331    4.0689e-16
   0.00550551       287.749       288.425      0.259344       17.8676      0.235996             0       14.0085     0.0490142             0       28.6618      -1.13118             0       3.46721             0             0      0.221295   2.52541e-16     0.0378477        102583        103218        235106   4.62702e-16
   0.00600601       287.694       288.433      0.247819       17.7784      0.251677             0       14.0439     0.0460432             0       29.0206       -1.3762             0       4.08656             0             0      0.219858    2.8299e-16     0.0440945        102583        103217        234881    5.1849e-16
   0.00650651       287.626       288.442      0.236026       17.6311      0.271411             0       14.0174     0.0468472             0       28.7672      -1.54432             0       4.72041             0             0       0.21833   3.12354e-16     0.0507377        102584        103216        234614   5.72292e-16
   0.00700701       287.558       288.451      0.224273       17.4835      0.290974             0       13.9899     0.0477323             0       28.5031      -1.71052             0       5.35366             0             0      0.216801   3.41648e-16     0.0573862        102584        103215        234346   6.25963e-16
   0.00750751       287.509       288.461      0.215352       17.3072      0.298482             0       13.8894     0.0543252             0       27.4844       -1.7413             0       5.94421             0             0      0.215187   3.65927e-16     0.0644043        102584        103214        234044   6.70447e-16
   0.00800801       287.461        288.47      0.206461       17.1316      0.305296             0       13.7882     0.0609723             0        26.458      -1.77079             0       6.53409             0             0      0.213567   3.90178e-16      0.071446        102585        103214        233741    7.1488e-16
   0.00850851       287.454       288.481      0.199402        17.001      0.269367             0        13.635     0.0709577             0       24.9627      -1.72031             0       7.08316             0             0      0.211615   4.12693e-16     0.0799347        102585        103213        233428   7.56131e-16
   0.00900901       287.446       288.492      0.192366       16.8719      0.232766             0       13.4814     0.0809342             0        23.466      -1.67006             0       7.63194             0             0      0.209656   4.35295e-16     0.0884535        102586        103212        233115   7.97542e-16
   0.00950951       287.478       288.504      0.186592       16.8249      0.159441             0       13.3058     0.0904257             0       21.8953      -1.63166             0       8.16514             0             0       0.20732    4.6264e-16     0.0986093        102586        103211        232796   8.47642e-16
      0.01001        287.51       288.517      0.180855       16.7786     0.0863876             0       13.1299     0.0998954             0       20.3265       -1.5938             0        8.6979             0             0      0.204982   4.90257e-16      0.108773        102587        103210        232476   8.98243e-16
    0.0105105       287.564        288.53      0.176911        16.772     0.0266793             0       12.9457      0.108296             0       18.8519      -1.58262             0       9.20915             0             0      0.202559   5.31248e-16       0.11931        102587        103209        232152   9.73345e-16
     0.011011       287.619       288.544      0.173049       16.7642    -0.0311081             0       12.7611      0.116728             0       17.3783      -1.57091             0       9.71914             0             0      0.200145   5.72321e-16      0.129806        102588        103208        231828    1.0486e-15
    0.0115115       287.672       288.556      0.172814       16.7077   -0.00349883             0       12.5615      0.126607             0        15.948      -1.53618             0       10.1729             0             0      0.198159   6.17065e-16      0.138439        102589        103207        231496   1.13058e-15
     0.012012       287.725       288.568      0.172637       16.6492     0.0266511             0       12.3615      0.136523             0       14.5182      -1.50056             0       10.6251             0             0      0.196192    6.6152e-16      0.146993        102589        103206        231165   1.21203e-15
    0.0125125       287.765       288.579      0.174795       16.5076      0.160124             0       12.1424      0.147996             0       13.1113      -1.42892             0       11.0089             0             0      0.194974   6.94207e-16      0.152285        102590        103206        230867   1.27192e-15
     0.013013       287.804        288.59      0.176907       16.3655      0.294074             0       11.9231      0.159439             0       11.7092       -1.3573             0       11.3914             0             0       0.19377   7.26569e-16      0.157522        102591        103205        230568   1.33121e-15
    0.0135135       287.834       288.599      0.177286       16.2055       0.44593             0       11.6991      0.169785             0       10.4838      -1.28682             0       11.7254             0             0      0.193041   7.46756e-16      0.160693        102591        103204        230287    1.3682e-15
     0.014014       287.864       288.608      0.177585       16.0463      0.596388             0       11.4751      0.180115             0       9.26821      -1.21631             0       12.0571             0             0       0.19232   7.66935e-16      0.163826        102592        103204        230005   1.40517e-15
    0.0145145       287.886       288.616      0.175117       15.9138      0.698373             0       11.2564      0.189894             0       8.39536      -1.14477             0       12.3099             0             0      0.191894   7.86809e-16      0.165679        102593        103203        229743   1.44158e-15
     0.015015       287.907       288.624      0.172611       15.7822      0.798328             0       11.0375      0.199824             0       7.53476      -1.07208             0       12.5574             0             0      0.191478   8.07002e-16      0.167488        102594        103203        229483   1.47858e-15
    0.0155155       287.921       288.631      0.168909       15.6789      0.832675             0       10.8137      0.214609             0       7.06991     -0.962396             0       12.6306             0             0       0.19139   8.37542e-16      0.167871        102595        103203        229261   1.53453e-15
     0.016016       287.935       288.639      0.165248       15.5774      0.864359             0       10.5895      0.229621             0        6.6199     -0.853164             0        12.697             0             0      0.191308   8.68286e-16      0.168224        102596        103202        229041   1.59086e-15
    0.0165165       287.941       288.644       0.16284       15.5303      0.815487             0       10.3536        0.2515             0       6.61863     -0.757635             0       12.5577             0             0      0.191436   9.05236e-16      0.167671        102597        103202        228853   1.65856e-15
     0.017017       287.948       288.649      0.160516       15.4854      0.764562             0       10.1177      0.273446             0       6.63528     -0.667082             0       12.4141             0             0      0.191568   9.42225e-16      0.167096        102597        103202        228665   1.72633e-15
    0.0175175       287.946       288.652      0.160569       15.5041      0.655321             0       9.88112      0.297268             0       7.16129     -0.717931             0       12.1445             0             0      0.191841   9.80355e-16       0.16591        102598        103202        228480   1.79619e-15
     0.018018       287.945       288.655      0.160714       15.5249      0.545897             0       9.64478      0.320999             0       7.70391     -0.775856             0        11.873             0             0      0.192113   1.01822e-15      0.164724        102599        103202        228296   1.86556e-15
    0.0185185       287.943       288.655      0.163339       15.5982      0.431541             0       9.41596      0.342291             0       8.69136       -1.0233             0       11.5485             0             0       0.19239   1.04889e-15      0.163522        102600        103202        228112   1.92177e-15
     0.019019       287.941       288.656      0.166042       15.6731      0.318673             0       9.18743      0.363519             0       9.68913      -1.27499             0       11.2224             0             0       0.19266   1.07907e-15      0.162349        102601        103203        227929   1.97706e-15
    0.0195195       287.947       288.655      0.170739       15.7875      0.243484             0       8.96654      0.383119             0       10.9483      -1.63455             0        10.858             0             0      0.192763   1.09663e-15        0.1619        102601        103203        227747   2.00923e-15
      0.02002       287.954       288.654       0.17551        15.901      0.171855             0        8.7459      0.402803             0       12.2104      -1.99206             0       10.4924             0             0      0.192856   1.11382e-15      0.161495        102602        103203        227564   2.04072e-15
    0.0205205       287.971       288.653      0.182048       15.9963      0.185658             0         8.531      0.424494             0       13.5426      -2.30068             0       10.0953             0             0      0.192714   1.12212e-15      0.162114        102603        103203        227337   2.05593e-15
     0.021021       287.989       288.653      0.188707       16.0831      0.205743             0        8.3167      0.446515             0       14.8665      -2.60237             0        9.6967             0             0      0.192561   1.13023e-15      0.162779        102604        103204        227110   2.07079e-15
    0.0215215       288.017       288.653      0.198109       15.9785      0.369096             0       8.11579      0.476055             0       16.0005      -2.74622             0       9.26455             0             0       0.19217   1.13408e-15      0.164479        102605        103204        226868   2.07784e-15
     0.022022       288.045       288.653      0.207679        15.858      0.538802             0       7.91628      0.505657             0       17.1136      -2.87908             0       8.83275             0             0       0.19177   1.13785e-15      0.166216        102606        103204        226627   2.08475e-15
    0.0225225       288.077       288.656      0.220881       15.3946      0.846554             0       7.74716      0.536628             0        17.773      -2.77303             0       8.40861             0             0       0.19119   1.14005e-15       0.16874        102606        103204        226415   2.08878e-15
     0.023023       288.109       288.658      0.234106       14.9251       1.15206             0       7.57931      0.567843             0        18.418      -2.66043             0        7.9877             0             0      0.190606   1.14219e-15      0.171279        102607        103205        226207    2.0927e-15
    0.0235235       288.136       288.659      0.247809       14.3264       1.41105             0       7.43784      0.604122             0       18.7645      -2.41185             0       7.63376             0             0      0.189945   1.14306e-15      0.174153        102608        103205        226059    2.0943e-15
     0.024024       288.161       288.661      0.261375       13.7388       1.66225             0       7.29724      0.640703             0       19.1058      -2.15919             0        7.2837             0             0      0.189297   1.14389e-15      0.176971        102608        103205        225914   2.09583e-15
    0.0245245        288.16       288.662      0.272219       13.3693       1.75908             0        7.1738      0.683261             0       19.3414      -1.82553             0       7.01051             0             0      0.188902   1.14402e-15      0.178688        102609        103205        225842   2.09606e-15
     0.025025       288.157       288.663      0.282939       13.0119       1.85261             0       7.05086      0.725947             0       19.5785      -1.48763             0       6.74117             0             0      0.188532   1.14436e-15      0.180297        102610        103205        225775   2.09668e-15
    0.0255255        288.12       288.668      0.291274       12.8837       1.88321             0       6.93746      0.771056             0       19.8458      -1.06913             0       6.54483             0             0      0.188634   1.14871e-15       0.17985        102610        103205        225803   2.10464e-15
     0.026026       288.083       288.673      0.299413       12.7585        1.9142             0       6.82401      0.816708             0       20.1318     -0.657371             0       6.35458             0             0      0.188751   1.15443e-15      0.179343        102611        103205        225838   2.11513e-15
    0.0265265       288.031       288.679      0.303982       12.6866       1.95233             0       6.70956       0.87226             0       20.7598     -0.368272             0       6.27544             0             0       0.18912    1.1853e-15       0.17774        102611        103204        225988   2.17168e-15
     0.027027        287.98       288.686      0.308202       12.6138       1.99249             0       6.59581      0.927996             0       21.4015    -0.0897724             0        6.2048             0             0      0.189481   1.21726e-15      0.176171        102612        103204        226143   2.23024e-15
    0.0275275       287.941       288.688      0.306334       12.5251       2.06834             0       6.49435      0.986968             0       22.2814    0.00305135             0       6.28324             0             0      0.189706   1.26841e-15      0.175192        102612        103204        226400   2.32396e-15
     0.028028       287.904       288.691      0.304075       12.4418       2.14636             0       6.39529       1.04548             0       23.1422     0.0916658             0       6.36911             0             0      0.189905   1.31969e-15      0.174328        102612        103203        226663   2.41793e-15
    0.0285285       287.893       288.688      0.295215       12.4496       2.26104             0       6.33671       1.09631             0       23.6816      0.109325             0       6.58022             0             0      0.189662   1.37332e-15      0.175383        102612        103203        227013   2.51618e-15
     0.029029       287.883       288.685      0.286181       12.4684       2.37779             0       6.28156       1.14625             0       24.1716      0.130422             0       6.79671             0             0      0.189403   1.42681e-15       0.17651        102612        103202        227369   2.61418e-15
    0.0295295        287.89       288.679       0.27433       12.6657       2.52798             0       6.28194       1.18172             0       23.8592      0.207361             0        7.1007             0             0      0.188878     1.478e-15      0.178789        102611        103201        227829   2.70797e-15
      0.03003       287.898       288.672      0.262482       12.8646       2.67953             0       6.28531       1.21622             0       23.4923      0.289003             0        7.4078             0             0      0.188353   1.52859e-15      0.181074        102611        103200        228293   2.80066e-15
    0.0305305       287.919       288.667      0.250665       13.0878       2.85242             0       6.33536       1.23548             0       22.2718      0.444348             0       7.76367             0             0      0.187808   1.56968e-15      0.183443        102610        103200        228839   2.87595e-15
     0.031031       287.942       288.662      0.238795       13.2971       3.02469             0       6.38709        1.2539             0        21.018      0.599113             0       8.12068             0             0      0.187245    1.6118e-15      0.185891        102608        103199        229389   2.95313e-15
    0.0315315           288        288.66       0.22613       13.2966        3.1876             0       6.46437       1.25956             0       19.2612      0.745129             0       8.49493             0             0      0.186409   1.66947e-15      0.189525        102607        103198        230011   3.05878e-15
     0.032032       288.058       288.659      0.213448       13.2792       3.34883             0       6.54223       1.26463             0       17.5019      0.884263             0       8.86869             0             0      0.185559   1.72782e-15      0.193224        102606        103197        230636    3.1657e-15
    0.0325325       288.137       288.659      0.200507       13.0154       3.48567             0       6.62867       1.26109             0       15.7044       0.92277             0       9.23539             0             0      0.184492   1.79628e-15      0.197859        102604        103197        231298   3.29112e-15
     0.033033       288.213       288.659      0.187694       12.7457       3.62249             0       6.71518       1.25725             0       13.9259      0.952032             0       9.60058             0             0      0.183443   1.86279e-15       0.20242        102602        103196        231958   3.41299e-15
    0.0335335       288.265        288.66      0.176684       12.3918       3.75903             0       6.80278       1.24922             0        12.416      0.850474             0       9.94462             0             0      0.182637   1.90176e-15      0.205928        102601        103195        232576   3.48438e-15
     0.034034       288.315        288.66       0.16585        12.039       3.89924             0       6.89035       1.24099             0       10.9311      0.740466             0       10.2864             0             0      0.181853   1.93883e-15      0.209335        102599        103195        233193    3.5523e-15
    0.0345345       288.339       288.661      0.157432       11.6999       4.08989             0       6.97748       1.22996             0       9.79013      0.514641             0       10.5978             0             0      0.181387   1.94994e-15      0.211361        102598        103195        233783   3.57265e-15
     0.035035       288.362       288.662      0.149162       11.3547       4.28343             0       7.06503        1.2188             0       8.66892       0.28032             0       10.9051             0             0      0.180926   1.96034e-15      0.213365        102596        103194        234369    3.5917e-15
    0.0355355       288.377       288.663      0.142849       10.9285       4.51522             0       7.15827        1.2059             0       7.80987    -0.0668868             0       11.1585             0             0       0.18053   1.96123e-15      0.215085        102595        103194        234909   3.59334e-15
     0.036036       288.392       288.663      0.136639       10.4874       4.74505             0       7.25219        1.1929             0       6.97305     -0.421908             0       11.4031             0             0       0.18014   1.96199e-15      0.216784        102594        103194        235440   3.59474e-15
    0.0365365       288.403       288.663      0.131774       9.85285       4.94952             0       7.35499        1.1786             0       6.42269     -0.877646             0        11.535             0             0      0.179811     1.961e-15      0.218212        102593        103194        235858   3.59291e-15
     0.037037       288.413       288.663      0.126979       9.20307       5.14922             0       7.45768       1.16397             0        5.9084      -1.33734             0       11.6537             0             0      0.179499   1.96026e-15      0.219571        102592        103194        236269   3.59155e-15
    0.0375375       288.421       288.664      0.123071       8.36235       5.28943             0       7.55891       1.14509             0       5.84561      -1.84647             0       11.6073             0             0      0.179382   1.96269e-15      0.220078        102591        103195        236597   3.59601e-15
     0.038038       288.427       288.665      0.119217       7.51085       5.42337             0       7.65935       1.12584             0       5.82562      -2.35444             0       11.5464             0             0      0.179278   1.96539e-15      0.220532        102591        103195        236917   3.60097e-15
    0.0385385       288.431       288.666      0.116018       6.52827        5.4811             0        7.7502       1.10212             0       6.32592      -2.84831             0       11.3082             0             0      0.179319   1.97144e-15      0.220354        102591        103196        237152   3.61205e-15
     0.039039       288.433       288.666      0.112864       5.54102       5.53128             0       7.84007       1.07803             0        6.8681      -3.33523             0        11.055             0             0      0.179366   1.97757e-15      0.220148        102592        103197        237376   3.62328e-15
    0.0395395       288.431       288.667      0.110237       4.49863       5.49202             0       7.91833        1.0496             0       7.90539      -3.73992             0       10.6245             0             0      0.179489   1.98471e-15      0.219614        102593        103198        237487   3.63636e-15
      0.04004       288.427       288.667      0.107653       3.46378       5.44303             0       7.99542       1.02082             0       8.97927      -4.13186             0       10.1814             0             0      0.179614    1.9917e-15      0.219069        102595        103199        237592   3.64917e-15
    0.0405405       288.411       288.666      0.105566       2.51567       5.28209             0       8.05891      0.987992             0       10.4739      -4.37731             0       9.59192             0             0      0.179767   1.99707e-15      0.218405        102597        103200        237643     3.659e-15
     0.041041       288.394       288.665      0.103491        1.5781        5.1151             0       8.12051      0.954851             0       11.9882      -4.60714             0       8.99376             0             0      0.179919   2.00196e-15      0.217745        102599        103201        237690   3.66797e-15
    0.0415415       288.369       288.661      0.101553      0.758452       4.88041             0       8.16105      0.918232             0        13.724      -4.66214             0       8.29805             0             0      0.180063   2.00162e-15      0.217118        102602        103203        237702   3.66733e-15
     0.042042       288.342       288.657     0.0996351    -0.0605724       4.64649             0        8.1987      0.881097             0       15.4501      -4.70227             0       7.59866             0             0      0.180222   1.99983e-15      0.216427        102605        103205        237709   3.66407e-15
    0.0425425       288.307       288.651     0.0979428     -0.872771       4.42096             0        8.2048      0.838329             0       17.0714      -4.58028             0       6.85909             0             0      0.180538   1.98241e-15       0.21505        102608        103206        237655   3.63215e-15
     0.043043       288.269       288.646     0.0963019       -1.6813       4.19464             0       8.20823      0.794997             0       18.6576      -4.44706             0        6.1219             0             0      0.180957   1.96045e-15       0.21323        102611        103207        237604   3.59192e-15
    0.0435435       288.201        288.64     0.0952079      -2.45088       3.96004             0       8.18326      0.745665             0       19.8705      -4.19458             0       5.40992             0             0      0.182458   1.89031e-15      0.206706        102614        103209        237574   3.46339e-15
     0.044044       288.134       288.634     0.0941341      -3.20141       3.72146             0       8.15662      0.695748             0       21.0419      -3.93845             0       4.70365             0             0      0.184004   1.81865e-15      0.199982        102617        103210        237548   3.33211e-15
    0.0445445        288.07       288.629     0.0932695      -3.75459       3.44172             0       8.11274      0.639769             0       21.7831      -3.64457             0       4.05641             0             0      0.186026   1.73143e-15      0.191193        102620        103211        237569    3.1723e-15
     0.045045        288.01       288.625     0.0924013       -4.2873       3.15843             0       8.06695      0.583163             0       22.4954      -3.35238             0        3.4156             0             0      0.188051   1.64528e-15      0.182387        102623        103213        237589   3.01447e-15
    0.0455455       287.976       288.622     0.0914959      -4.61307       2.83921             0       8.00178      0.520218             0       22.9149      -3.07722             0       2.83983             0             0      0.190115   1.57006e-15      0.173414        102626        103214        237584   2.87664e-15