#           y             T         TMean   TPrime2Mean           U_x           U_y           U_z       UMean_x       UMean_y       UMean_z UPrime2Mea... UPrime2Mea... UPrime2Mea... UPrime2Mea... UPrime2Mea... UPrime2Mea...            O2           H2O          C3H8             p         pMean   pPrime2Mean           CO2
  1.11022e-19       288.198       288.573     0.0969683       15.5561  -2.13465e-17             0       12.6875   1.53509e-18             0       36.2802   2.30933e-18             0   6.08506e-18             0             0       0.18748   2.35547e-15      0.184868        102404        103177        279810   4.31566e-15
  0.000500501       288.155        288.58     0.0953255       15.2885    -0.0962323             0       12.6534    0.00692036             0       35.7897     0.0104107             0     0.0274321             0             0       0.18954   2.31506e-15      0.175911        102404        103177        279812   4.24161e-15
     0.001001       288.112       288.587     0.0936861       15.0205     -0.192425             0       12.6192     0.0138409             0       35.2974     0.0209043             0     0.0549425             0             0      0.191604   2.27456e-15       0.16694        102404        103177        279814   4.16742e-15
    0.0015015        288.04       288.595     0.0937744       14.5829     -0.268758             0       12.5343      0.020851             0       33.9396     0.0728004             0      0.121504             0             0      0.195306   2.19387e-15      0.150842        102404        103177        279802   4.01957e-15
     0.002002       287.969       288.603     0.0938834       14.1465     -0.344916             0       12.4494     0.0278572             0       32.5809       0.12477             0      0.188245             0             0      0.199002    2.1133e-15      0.134773        102404        103177        279790   3.87196e-15
    0.0025025       287.972       288.603     0.0991656       14.0001      -0.37757             0        12.362     0.0339093             0        30.983      0.195151             0      0.299658             0             0      0.201007    2.0653e-15      0.126056        102404        103177        279760   3.78402e-15
     0.003003       287.976       288.603      0.104454       13.8547     -0.410093             0       12.2748     0.0399526             0       29.3872        0.2654             0      0.411326             0             0      0.202999   2.01766e-15      0.117398        102404        103176        279729   3.69673e-15
    0.0035035       288.101       288.601      0.110772       13.8895     -0.420705             0       12.2165     0.0445344             0       28.1199      0.313868             0      0.565309             0             0       0.20274   2.02925e-15      0.118522        102403        103176        279710   3.71796e-15
     0.004004       288.226       288.599      0.117058       13.9237     -0.431466             0       12.1583     0.0491069             0       26.8548      0.362141             0      0.719587             0             0      0.202473   2.04101e-15      0.119682        102403        103176        279691   3.73952e-15
    0.0045045       288.413       288.599      0.119315       13.8795     -0.460737             0       12.1187     0.0525295             0       25.8579        0.3863             0      0.910439             0             0       0.20118   2.07522e-15      0.125304        102403        103176        279639   3.80219e-15
   0.00500501         288.6         288.6      0.121488       13.8346     -0.490084             0       12.0791     0.0559457             0       24.8624      0.410329             0       1.10158             0             0      0.199892   2.10921e-15      0.130906        102403        103176        279588   3.86447e-15
   0.00550551       288.746       288.606      0.115279       13.7151     -0.526966             0       12.0439     0.0587248             0       24.0073      0.421456             0       1.32115             0             0      0.199047   2.12247e-15      0.134578        102402        103175        279516   3.88876e-15
   0.00600601       288.892       288.613      0.109016       13.5954     -0.563806             0       12.0087     0.0614951             0       23.1543      0.432375             0       1.54101             0             0       0.19821    2.1355e-15      0.138219        102402        103175        279444   3.91263e-15
   0.00650651       288.968       288.623     0.0983529       13.4529      -0.59722             0       11.9781     0.0635317             0        22.469       0.42624             0       1.78394             0             0      0.197969   2.12992e-15      0.139267        102402        103175        279349   3.90241e-15
   0.00700701       289.044       288.633     0.0877454       13.3098     -0.630785             0       11.9476     0.0655521             0        21.787      0.419731             0       2.02723             0             0       0.19773   2.12432e-15      0.140305        102402        103175        279254   3.89214e-15
   0.00750751       289.078        288.64     0.0810213       13.1239     -0.675005             0       11.9261     0.0664271             0       21.3309      0.386881             0       2.29542             0             0      0.197671   2.11693e-15      0.140563        102402        103174        279136    3.8786e-15
   0.00800801       289.111       288.648     0.0743636       12.9372     -0.719495             0       11.9046     0.0672852             0       20.8779      0.353676             0       2.56405             0             0      0.197615   2.10947e-15      0.140803        102402        103174        279017   3.86494e-15
   0.00850851        289.12        288.65     0.0717961       12.7023     -0.780544             0       11.8891      0.067103             0        20.617       0.29869             0       2.86034             0             0      0.197817   2.09796e-15      0.139928        102402        103174        278879   3.84385e-15
   0.00900901       289.129       288.653     0.0692533       12.4669     -0.841883             0       11.8736      0.066909             0       20.3576      0.243554             0       3.15714             0             0      0.198024    2.0863e-15      0.139027        102403        103173        278742    3.8225e-15
   0.00950951       289.124       288.654     0.0680596       12.2032     -0.919058             0       11.8564     0.0660739             0       20.1788      0.180199             0       3.48222             0             0      0.198552   2.06657e-15       0.13673        102403        103173        278594   3.78634e-15
      0.01001       289.118       288.655     0.0668801       11.9395      -0.99654             0       11.8392     0.0652267             0       19.9997      0.116801             0       3.80795             0             0      0.199088   2.04658e-15      0.134398        102403        103173        278447   3.74972e-15
    0.0105105       289.101       288.655     0.0663918       11.6766      -1.08909             0       11.8152     0.0637883             0       19.8092     0.0512461             0       4.16558             0             0      0.200005   2.01428e-15      0.130411        102403        103172        278300   3.69053e-15
     0.011011       289.084       288.656     0.0659138       11.4144      -1.18187             0        11.791     0.0623313             0       19.6172    -0.0143917             0       4.52404             0             0      0.200933   1.98144e-15       0.12638        102404        103172        278153   3.63036e-15
    0.0115115       289.055       288.656     0.0658915       11.1832        -1.285             0       11.7579     0.0600417             0       19.3588    -0.0837248             0       4.91977             0             0      0.202306   1.92486e-15      0.120408        102404        103172        277998   3.52671e-15
     0.012012       289.027       288.656     0.0658727       10.9533      -1.38838             0       11.7245      0.057734             0       19.0974     -0.152948             0       5.31635             0             0      0.203683   1.86794e-15       0.11442        102405        103171        277845   3.42242e-15
    0.0125125       288.993       288.656     0.0659927       10.7776      -1.50248             0         11.68     0.0546862             0       18.7131     -0.217695             0       5.74732             0             0      0.205201   1.79691e-15      0.107821        102405        103171        277734   3.29227e-15
     0.013013        288.96       288.655     0.0661053       10.6037      -1.61686             0        11.635     0.0516642             0        18.323      -0.28116             0       6.17842             0             0      0.206712   1.72606e-15      0.101252        102406        103171        277625   3.16247e-15
    0.0135135       288.931       288.656     0.0659406       10.4945      -1.74191             0        11.572     0.0496119             0       17.7131     -0.296607             0       6.61405             0             0      0.207963   1.66242e-15     0.0958133        102407        103170        277527   3.04587e-15
     0.014014       288.902       288.657     0.0657744       10.3869      -1.86703             0       11.5083     0.0476585             0       17.0948     -0.309382             0       7.04834             0             0      0.209218   1.59834e-15     0.0903563        102408        103170        277431   2.92845e-15
    0.0145145       288.868       288.658     0.0655588       10.3331      -1.99432             0       11.4187     0.0491365             0       16.1875      -0.22943             0       7.43603             0             0      0.210618   1.51882e-15     0.0842702        102409        103169        277343   2.78276e-15
     0.015015       288.834        288.66     0.0653463       10.2805      -2.12124             0       11.3283     0.0507062             0       15.2733     -0.147494             0       7.82168             0             0      0.212017   1.43929e-15     0.0781887        102410        103169        277256   2.63705e-15
    0.0155155       288.801       288.661     0.0652364       10.2614      -2.23632             0       11.2117     0.0552448             0       14.1374   -0.00143267             0       8.14182             0             0      0.213382   1.35953e-15     0.0722525        102411        103168        277218   2.49091e-15
     0.016016       288.767       288.662     0.0651223       10.2432      -2.35075             0       11.0944     0.0597578             0       12.9996      0.143944             0       8.46063             0             0      0.214739   1.28001e-15     0.0663523        102412        103168        277179   2.34522e-15
    0.0165165        288.74       288.663     0.0648813       10.2527      -2.44541             0       10.9589        0.0635             0       11.8035      0.268595             0       8.73936             0             0      0.215846   1.20787e-15     0.0615384        102413        103167        277128   2.21305e-15
     0.017017       288.713       288.664     0.0646428       10.2632      -2.53972             0        10.823     0.0671399             0       10.6102      0.390986             0       9.01684             0             0      0.216953   1.13538e-15     0.0567259        102414        103167        277077   2.08023e-15
    0.0175175       288.686       288.665     0.0644764       10.2999      -2.62403             0        10.676     0.0678741             0        9.5006      0.449159             0       9.25867             0             0      0.218051   1.05295e-15     0.0519517        102414        103167        276999    1.9292e-15
     0.018018       288.659       288.667     0.0643163       10.3372      -2.70796             0       10.5287      0.068536             0       8.39782      0.505623             0       9.49782             0             0      0.219139   9.71073e-16     0.0472228        102415        103167        276921   1.77919e-15
    0.0185185       288.639       288.668     0.0643251       10.3883      -2.78198             0       10.3732     0.0672618             0        7.4779      0.516333             0       9.66515             0             0      0.219947    9.0403e-16     0.0437068        102415        103166        276805   1.65635e-15
     0.019019        288.62       288.669     0.0643298       10.4394      -2.85523             0       10.2175     0.0659303             0       6.56826      0.526025             0       9.82879             0             0      0.220747   8.37607e-16     0.0402299        102415        103166        276689   1.53465e-15
    0.0195195       288.606       288.671     0.0642313       10.4928       -2.9094             0       10.0588     0.0631476             0       5.91858      0.509958             0       9.89882             0             0       0.22132   7.86902e-16      0.037741        102416        103166        276536   1.44175e-15
      0.02002       288.593       288.673     0.0641078        10.546      -2.96268             0       9.90034      0.060273             0       5.28079      0.493014             0       9.96536             0             0      0.221886   7.36602e-16     0.0352769        102417        103166        276384   1.34959e-15
    0.0205205       288.583       288.676     0.0633851       10.5966      -2.99459             0       9.74574     0.0551943             0       4.92819      0.454994             0        9.9479             0             0      0.222317   6.95998e-16     0.0334044        102418        103166        276244    1.2752e-15
     0.021021       288.573        288.68     0.0626332        10.647       -3.0256             0       9.59139      0.050045             0       4.58652      0.416605             0       9.92703             0             0      0.222743   6.55843e-16     0.0315518        102419        103166        276104   1.20163e-15
    0.0215215       288.565       288.684     0.0612143       10.6918      -3.03588             0       9.44271     0.0432831             0       4.49446      0.369807             0       9.82831             0             0      0.223065   6.25929e-16     0.0301527        102420        103166        275995   1.14682e-15
     0.022022       288.558       288.689     0.0597814       10.7363      -3.04524             0       9.29418     0.0365287             0       4.41131      0.323526             0       9.72584             0             0      0.223383     5.964e-16     0.0287691        102421        103166        275886   1.09272e-15
    0.0225225       288.553       288.693     0.0580444       10.7749      -3.03464             0       9.14885     0.0299375             0       4.52174      0.288481             0       9.54192             0             0      0.223623   5.75231e-16     0.0277257        102422        103166        275774   1.05393e-15
     0.023023       288.548       288.698     0.0563185       10.8132      -3.02312             0       9.00366     0.0233867             0       4.63969      0.254279             0       9.35427             0             0       0.22386   5.54303e-16     0.0266942        102424        103167        275661   1.01559e-15
    0.0235235       288.544       288.703     0.0548248       10.8445      -2.99249             0        8.8615     0.0176762             0        4.9134      0.237533             0       9.08949             0             0       0.22404     5.384e-16     0.0259111        102426        103167        275535    9.8645e-16
     0.024024       288.541       288.707     0.0533619       10.8753      -2.96112             0       8.71969     0.0119909             0       5.19396      0.221434             0       8.82139             0             0      0.224219   5.22659e-16     0.0251366        102428        103167        275410   9.57608e-16
    0.0245245       288.538       288.712     0.0525081       10.8954       -2.9149             0       8.58456    0.00680472             0       5.61058      0.218164             0       8.48768             0             0      0.224357   5.10112e-16     0.0245352        102429        103168        275296   9.34621e-16
     0.025025       288.536       288.716     0.0516692       10.9149      -2.86816             0        8.4501    0.00163596             0       6.03233      0.215421             0       8.15132             0             0      0.224495   4.97597e-16     0.0239342        102431        103168        275181    9.1169e-16
    0.0255255       288.533       288.721     0.0511152       10.9236      -2.81173             0       8.32815    -0.0032018             0       6.55157      0.222702             0       7.76465             0             0      0.224632   4.85669e-16     0.0233399        102431        103169        275034   8.89835e-16
     0.026026       288.529       288.725     0.0505452       10.9317      -2.75492             0       8.20716   -0.00801375             0        7.0723      0.230364             0       7.37644             0             0      0.224772   4.73567e-16     0.0227327        102431        103169        274885   8.67663e-16
    0.0265265       288.524       288.731     0.0496842       10.9308      -2.69117             0       8.10374    -0.0123551             0       7.62004       0.24496             0       6.96003             0             0      0.224965   4.58303e-16     0.0218904        102430        103170        274712   8.39696e-16
     0.027027       288.519       288.737      0.048791       10.9294      -2.62699             0       8.00143    -0.0166662             0       8.16538      0.259808             0       6.54331             0             0      0.225162    4.4285e-16     0.0210358        102429        103170        274538   8.11384e-16
    0.0275275       288.513       288.745     0.0473342       10.9218      -2.55515             0       7.91834    -0.0204478             0       8.66894      0.279078             0       6.12108             0             0      0.225408   4.24096e-16     0.0199665        102429        103171        274339   7.77023e-16
     0.028028       288.506       288.752     0.0459026       10.9139      -2.48291             0        7.8364     -0.024169             0       9.16636      0.298581             0       5.69952             0             0      0.225654   4.05382e-16     0.0188974        102428        103171        274140   7.42735e-16
    0.0285285       288.501       288.761     0.0448978          10.9      -2.40402             0       7.77382    -0.0268724             0       9.56055      0.322004             0       5.28955             0             0      0.225898    3.8734e-16     0.0178329        102429        103171        273935   7.09679e-16
     0.029029       288.495       288.769     0.0439724       10.8857      -2.32498             0       7.71242    -0.0294408             0       9.94466      0.345227             0       4.88112             0             0      0.226141   3.69514e-16     0.0167778        102430        103172        273732   6.77018e-16
    0.0295295       288.491       288.775     0.0443345       10.8649       -2.2434             0       7.67034    -0.0298169             0       10.1653      0.365221             0       4.49799             0             0      0.226349   3.55191e-16     0.0158761        102431        103172        273582   6.50777e-16
      0.03003       288.486       288.781     0.0447225       10.8435      -2.16182             0       7.62938    -0.0300317             0       10.3741      0.384384             0       4.11728             0             0      0.226557   3.40793e-16     0.0149707        102432        103173        273436   6.24396e-16
    0.0305305       288.481       288.784     0.0455171       10.8153      -2.07999             0       7.60587    -0.0277184             0       10.3973      0.390534             0       3.77442             0             0      0.226778   3.25203e-16     0.0140084        102433        103173        273366   5.95832e-16
     0.031031       288.476       288.786      0.046281       10.7867      -1.99822             0        7.5832     -0.025308             0       10.4113      0.395783             0       3.43465             0             0         0.227   3.09499e-16     0.0130431        102435        103174        273298    5.6706e-16
    0.0315315       288.471       288.785     0.0465805        10.752      -1.91715             0       7.57318    -0.0214289             0       10.2868      0.387395             0       3.14154             0             0      0.227233   2.92077e-16     0.0120323        102435        103174        273267    5.3514e-16
     0.032032       288.465       288.784     0.0468406        10.717       -1.8362             0       7.56353    -0.0175371             0       10.1595      0.378532             0       2.85168             0             0      0.227464    2.7468e-16     0.0110264        102436        103175        273242   5.03265e-16
    0.0325325        288.46        288.78     0.0465244       10.6788      -1.75676             0       7.55947    -0.0134594             0       9.98983      0.362737             0       2.60941             0             0      0.227679   2.57648e-16     0.0100923        102437        103175        273293    4.7206e-16
     0.033033       288.455       288.777     0.0461756       10.6405      -1.67748             0       7.55537   -0.00941204             0         9.823      0.346824             0       2.37002             0             0      0.227892   2.40685e-16    0.00916466        102437        103175        273349    4.4098e-16
    0.0335335       288.451       288.772     0.0453658       10.6013       -1.6003             0       7.55083   -0.00579507             0       9.69637      0.329238             0       2.17138             0             0      0.228084   2.24693e-16    0.00832979        102438        103175        273472   4.11679e-16
     0.034034       288.446       288.767     0.0445193       10.5622      -1.52325             0       7.54611   -0.00221504             0       9.57426      0.311666             0       1.97496             0             0      0.228274   2.08848e-16    0.00750534        102438        103176        273598   3.82648e-16
    0.0345345       288.442        288.76     0.0431699       10.5233      -1.44796             0       7.53901   0.000858768             0       9.51406      0.294312             0       1.80894             0             0      0.228431   1.95018e-16    0.00682348        102439        103176        273760   3.57309e-16
     0.035035       288.439       288.753     0.0417956       10.4844      -1.37274             0       7.53186    0.00389302             0        9.4565      0.277052             0       1.64459             0             0      0.228587   1.81164e-16    0.00614426        102439        103176        273927   3.31927e-16
    0.0355355       288.435       288.745     0.0400889       10.4469      -1.29839             0       7.52396     0.0064017             0       9.43394      0.261048             0       1.50234             0             0      0.228735   1.66994e-16    0.00550016        102440        103176        274150   3.05964e-16
     0.036036       288.432       288.737     0.0383999       10.4095      -1.22409             0       7.51616    0.00887537             0       9.41158      0.245165             0       1.36145             0             0      0.228883   1.52749e-16    0.00485471        102441        103177        274374   2.79864e-16
    0.0365365       288.428       288.728     0.0369401       10.3737      -1.15048             0       7.50982     0.0108976             0       9.39176      0.230841             0       1.23798             0             0      0.229036   1.37532e-16    0.00419177        102441        103177        274611   2.51984e-16
     0.037037       288.424        288.72     0.0355385        10.338      -1.07685             0       7.50364      0.012891             0       9.37111      0.216616             0       1.11573             0             0      0.229186    1.2242e-16    0.00353721        102442        103177        274848   2.24297e-16
    0.0375375       288.421       288.712     0.0348643       10.3029      -1.00317             0       7.49964     0.0145228             0       9.33985       0.20365             0       1.00858             0             0      0.229313   1.08637e-16    0.00298761        102443        103177        275091   1.99043e-16
     0.038038       288.419       288.704     0.0342484       10.2677     -0.929415             0       7.49577     0.0161269             0       9.30796       0.19077             0      0.902578             0             0      0.229436   9.50979e-17    0.00245136        102443        103177        275336   1.74237e-16
    0.0385385       288.417       288.699     0.0343411       10.2313     -0.854677             0       7.49355     0.0173953             0       9.26836      0.178951             0      0.810517             0             0      0.229522   8.45282e-17    0.00207729        102444        103177        275597   1.54871e-16
     0.039039       288.415       288.694     0.0344598       10.1945     -0.779831             0       7.49139     0.0186353             0       9.22871      0.167219             0      0.719521             0             0      0.229608   7.39693e-17     0.0017064        102444        103177        275860   1.35525e-16
    0.0395395       288.413        288.69     0.0348849       10.1531     -0.703706             0       7.48999      0.019541             0        9.1885      0.156513             0       0.64113             0             0      0.229684   6.35378e-17    0.00137316        102444        103177        276131   1.16413e-16
      0.04004       288.411       288.687     0.0353087       10.1108     -0.627491             0        7.4886      0.020417             0       9.14862      0.145904             0      0.563717             0             0      0.229759      5.32e-17     0.0010472        102445        103177        276405   9.74723e-17
    0.0405405        288.41       288.685     0.0357193       10.0591     -0.550252             0       7.48734     0.0209515             0       9.11263        0.1364             0      0.497543             0             0      0.229815   4.39393e-17   0.000805033        102445        103177        276698    8.0505e-17
     0.041041       288.409       288.683     0.0361156       10.0059      -0.47305             0       7.48608     0.0214528             0       9.07706      0.126977             0      0.432265             0             0      0.229869   3.48687e-17   0.000570344        102445        103178        276991   6.38859e-17
    0.0415415       288.408       288.682     0.0363516       9.93629     -0.396283             0       7.48465      0.021584             0       9.04622      0.118454             0      0.377016             0             0      0.229903   2.79252e-17   0.000419421        102446        103178        277280   5.11641e-17
     0.042042       288.408       288.681     0.0365784       9.86438     -0.319848             0        7.4832     0.0216755             0       9.01579      0.109998             0      0.322596             0             0      0.229937   2.11294e-17   0.000273787        102446        103178        277567    3.8713e-17
    0.0425425       288.407       288.681     0.0367043       9.76723     -0.247051             0       7.48141     0.0213349             0       8.98975      0.102265             0      0.277208             0             0      0.229957   1.59448e-17   0.000185815        102446        103178        277826   2.92139e-17
     0.043043       288.407       288.681     0.0368235       9.66688     -0.175126             0       7.47958     0.0209451             0       8.96399     0.0945746             0      0.232581             0             0      0.229976   1.09402e-17   0.000102204        102447        103178        278084   2.00445e-17
    0.0435435       288.407       288.681     0.0368711        9.5324     -0.112469             0        7.4773      0.020033             0       8.94114     0.0873236             0      0.196034             0             0      0.229985   7.84759e-18    6.4939e-05        102447        103178        278344   1.43783e-17
     0.044044       288.407       288.681     0.0369142       9.39376    -0.0513198             0       7.47483     0.0190593             0       8.91876     0.0801161             0      0.160185             0             0      0.229993   4.89318e-18   2.98746e-05        102447        103178        278601   8.96522e-18
    0.0445445       288.407        288.68     0.0369096        9.2121   -0.00579273             0       7.47044      0.017447             0       8.90132     0.0733591             0      0.131577             0             0      0.229996   3.37125e-18   1.76135e-05        102447        103178        278835   6.17675e-18
     0.045045       288.407        288.68     0.0369062       9.02534     0.0376372             0       7.46511     0.0157624             0       8.88105     0.0667084             0      0.103602             0             0      0.229999   1.93421e-18   6.20982e-06        102448        103178        279065   3.54384e-18
    0.0455455       288.408       288.681     0.0369154       8.78708     0.0598633             0       7.45024     0.0133461             0       8.83222     0.0611329             0     0.0820378             0             0      0.229999   1.35568e-18   3.47576e-06        102448        103178        279251   2.48386e-18