#           y             T         TMean   TPrime2Mean           U_x           U_y           U_z       UMean_x       UMean_y       UMean_z UPrime2Mea... UPrime2Mea... UPrime2Mea... UPrime2Mea... UPrime2Mea... UPrime2Mea...            O2           H2O          C3H8             p         pMean   pPrime2Mean           CO2
            0       288.066       288.017     0.0628577       21.7121             0             0       22.5805             0             0       5.66859             0             0             0             0             0          0.23   6.99622e-21   2.01272e-08        102506        103168        251267   1.28184e-20
  0.000500501       288.067       288.017     0.0628662       21.7079     -0.239199             0       22.5823    0.00887179             0       5.68347      0.136153             0     0.0433269             0             0          0.23   9.47772e-20   2.31052e-07        102505        103168        250807    1.7365e-19
     0.001001       288.068       288.017     0.0628745       21.7035     -0.478391             0       22.5842     0.0177505             0        5.6985      0.272312             0     0.0867616             0             0          0.23   1.89002e-19   4.52072e-07        102505        103167        250345   3.46288e-19
    0.0015015       288.068       288.017     0.0627388        21.659      -0.71427             0         22.58      0.030067             0       5.78808      0.411717             0      0.183997             0             0      0.229999   3.49889e-18   5.71045e-06        102504        103168        249054   6.41062e-18
     0.002002       288.068       288.017     0.0626028       21.6143     -0.950345             0       22.5759      0.042364             0       5.87794      0.551259             0      0.281701             0             0      0.229997   7.19364e-18    1.1292e-05        102503        103168        247761   1.31801e-17
    0.0025025       288.068       288.017     0.0624004       21.5309      -1.23525             0       22.5762     0.0497871             0       6.03766      0.725096             0      0.495815             0             0      0.229978   1.06719e-16   9.73451e-05        102502        103168        245759    1.9553e-16
     0.003003       288.069       288.017     0.0621985       21.4468      -1.52001             0       22.5764     0.0572878             0       6.19891       0.89896             0      0.710695             0             0      0.229956   2.21195e-16   0.000189519        102500        103168        243754   4.05271e-16
    0.0035035         288.1       288.017     0.0620873       21.2566       -1.7815             0       22.5662      0.077656             0       6.61299       1.07733             0       1.05234             0             0      0.229702   2.81242e-15    0.00129575        102500        103167        241158   5.15288e-15
     0.004004       288.134       288.017     0.0620289       21.0654      -2.04394             0        22.556     0.0979327             0        7.0296       1.25711             0       1.39786             0             0      0.229436   5.70184e-15    0.00245046        102500        103167        238559   1.04468e-14
    0.0045045        288.53       288.024      0.068526       20.7551      -2.42456             0       22.5576      0.106845             0       7.75905       1.61126             0       2.22367             0             0      0.227788   4.55664e-14    0.00961738        102498        103166        235575   8.34861e-14
   0.00500501       288.947       288.031     0.0777712       20.4442      -2.80342             0       22.5587      0.115988             0       8.49748       1.96482             0       3.05721             0             0      0.226101   8.89403e-14     0.0169515        102496        103166        232592   1.62955e-13
   0.00550551       291.537       288.083      0.359077        20.077      -3.00691             0       22.5168      0.147986             0        10.125       2.25876             0       4.65587             0             0      0.220608   4.79744e-13      0.040836        102495        103164        229568   8.78981e-13
   0.00600601       294.201       288.137      0.682139       19.7151      -3.21282             0       22.4748      0.179347             0       11.7493       2.55998             0       6.28425             0             0      0.215075   8.99239e-13     0.0648903        102494        103163        226550   1.64757e-12
   0.00650651       302.972       288.323       4.44307       19.7828      -3.61748             0       22.4341      0.158243             0       13.1077       3.45979             0       10.3597             0             0      0.206327   3.68093e-12      0.102924        102488        103159        223989   6.74415e-12
   0.00700701       311.903       288.511       8.46314       19.8556      -4.01579             0       22.3938      0.138095             0       14.4375       4.35476             0        14.457             0             0      0.197588   6.73425e-12      0.140921        102483        103155        221435   1.23384e-11
   0.00750751       332.146       288.933       30.7343        20.287      -3.96637             0       22.3867      0.185238             0       13.7601       4.90836             0       20.0988             0             0      0.189453    2.8918e-11      0.176291        102479        103148        219370   5.29832e-11
   0.00800801       352.598       289.364       54.3973       20.7168      -3.91998             0       22.3693      0.230485             0       13.0685       5.42147             0       25.7509             0             0      0.181363   5.29956e-11      0.211465        102476        103142        217304   9.70978e-11
   0.00850851       385.883       290.433       163.651       21.0428      -4.05894             0       21.7169       0.15916             0       11.5028       3.44384             0       32.0418             0             0      0.176049   1.93542e-10      0.234569        102475        103134        215199   3.54606e-10
   0.00900901       418.908         291.5       273.214       21.3805      -4.20581             0       21.0626     0.0882728             0       9.93735       1.45076             0       38.2897             0             0      0.170794   3.33854e-10      0.257415        102475        103126        213070   6.11682e-10
   0.00950951       437.803       292.491       399.694        22.364      -4.78392             0       20.3089     0.0412639             0       8.38816      -1.38563             0       42.1898             0             0      0.168769   4.61315e-10       0.26622        102477        103122        209601   8.45214e-10
      0.01001       456.316       293.469       525.149       23.3333      -5.34121             0        19.549   -0.00237741             0       6.86537      -4.19067             0        45.986             0             0      0.166643    5.9074e-10      0.275464        102479        103118        206105   1.08235e-09
    0.0105105       456.102       293.824       600.412       23.6033      -4.87831             0       18.4871      0.118992             0       6.63632      -5.45936             0       44.6934             0             0      0.159574   8.16415e-10      0.306201        102492        103124        201279   1.49582e-09
     0.011011       455.894       294.175       675.468       23.8505      -4.41739             0         17.41      0.239578             0       6.43047      -6.69128             0       43.3176             0             0      0.152343   1.06444e-09      0.337638        102506        103129        196438   1.95024e-09
    0.0115115       456.004       294.357         741.3        23.085       -4.0446             0       15.6548      0.325346             0       7.25613      -6.28859             0       38.2442             0             0      0.137963   2.30583e-09       0.40016        102519        103138        190942    4.2247e-09
     0.012012       456.265       294.538       807.264       22.3063      -3.67163             0       13.9021      0.409127             0       8.05959      -5.85947             0       33.1313             0             0      0.123588   3.59596e-09      0.462663        102532        103147        185458   6.58846e-09
    0.0125125       462.637       294.686        878.61       20.9882      -3.29145             0        12.247      0.412092             0       7.96035      -4.35515             0       26.4131             0             0      0.109402   6.86819e-09      0.524339        102545        103155        180521   1.25838e-08
     0.013013       468.959       294.828       947.788       19.6594      -2.90651             0       10.6177      0.413012             0       7.84241      -2.85905             0       19.7699             0             0     0.0952583   1.00772e-08      0.585834        102557        103162        175621   1.84634e-08
    0.0135135        473.45       294.741        935.77       17.9293      -2.34337             0       9.95023      0.337325             0       7.02409       -1.6713             0       15.9315             0             0     0.0826812   1.09192e-08      0.640516        102564        103165        172171    2.0006e-08
     0.014014       477.567       294.646       920.889       16.2361      -1.78362             0        9.3083      0.264251             0       6.20759     -0.509883             0       12.1527             0             0     0.0701467   1.16475e-08      0.695014        102572        103169        168747   2.13403e-08
    0.0145145       468.677       294.248       806.644        15.823      -1.34156             0       9.55129      0.281916             0       5.45455      -0.26296             0       10.4468             0             0     0.0590865   8.43066e-09      0.743102        102571        103170        166216   1.54465e-08
     0.015015       459.811       293.855       693.816       15.4288     -0.888198             0        9.7914      0.298187             0       4.72308    -0.0220303             0       8.77618             0             0     0.0481958    5.2464e-09      0.790453        102571        103172        163716   9.61237e-09
    0.0155155       451.706       293.656        626.83       15.6463    -0.0694256             0       9.93849      0.269382             0       4.68892     0.0251103             0       8.24851             0             0     0.0427879   3.11451e-09      0.813966        102570        103172        162233   5.70636e-09
     0.016016       443.367       293.439       558.401       15.8217      0.746974             0       10.1032       0.23812             0       4.73235     0.0408033             0       7.75927             0             0     0.0376679   1.03793e-09      0.836227        102569        103171        160770   1.90168e-09
    0.0165165       427.957       292.663       446.323       14.7248       1.49161             0       10.7999      0.132517             0       7.12282     -0.894793             0       8.43279             0             0     0.0412554   6.34327e-10      0.820629        102569        103171        159896    1.1622e-09
     0.017017       412.118       291.874       333.541       13.6442       2.21888             0       11.5623     0.0222056             0       9.53432      -1.84597             0        9.0941             0             0     0.0452391   2.41117e-10      0.803308        102569        103170        159021   4.41771e-10
    0.0175175       384.088       290.686       200.767        13.029       2.45266             0       14.1882     -0.221863             0       12.5437      -3.23969             0        9.4086             0             0     0.0604787   1.43241e-10      0.737049        102570        103170        158121   2.62444e-10
     0.018018       356.288       289.521       71.5781       12.5153         2.685             0       16.8082     -0.457802             0       15.4788      -4.59942             0       9.72597             0             0     0.0761033   4.81498e-11      0.669116        102571        103170        157219   8.82195e-11
    0.0185185       334.659        288.97       38.4224       14.7202       2.87849             0       19.2662     -0.476033             0       16.4272      -5.04922             0       10.1201             0             0      0.102033   2.76382e-11       0.55638        102570        103169        156251   5.06383e-11
     0.019019       313.484       288.433       6.40976        16.961       3.06643             0       21.6574       -0.4917             0       17.3285       -5.4735             0       10.4948             0             0      0.127946   7.76999e-12      0.443714        102569        103168        155312   1.42361e-11
    0.0195195       303.771       288.264       3.33244       20.1132       3.11376             0       22.3579      -0.44246             0       17.0404      -5.25147             0       10.3786             0             0      0.153453   4.19113e-12      0.332814        102571        103168        155101   7.67892e-12
      0.02002       294.342       288.099      0.372139       23.2144       3.16353             0       23.0411     -0.394268             0       16.7402      -5.02733             0       10.2589             0             0      0.178597   7.41672e-13      0.223492        102573        103169        154907   1.35888e-12
    0.0205205       291.731       288.057      0.220495       25.0903       3.27184             0       23.3114     -0.371231             0       16.1516       -4.7522             0       10.0585             0             0       0.19503    3.9799e-13      0.152041        102575        103169        155136   7.29191e-13
     0.021021       289.209       288.017     0.0748135       26.9135       3.38077             0       23.5663     -0.344167             0       15.5719      -4.46055             0       9.90338             0             0      0.211072   6.74162e-14     0.0822967        102577        103169        155362   1.23519e-13
    0.0215215       288.695       288.014     0.0651114       27.5349       3.50376             0       23.4721     -0.225232             0       15.1986      -3.79187             0       10.7815             0             0      0.218162    3.5839e-14     0.0514676        102576        103167        155547   6.56637e-14
     0.022022         288.2       288.012     0.0556866       28.1393       3.63309             0       23.3546     -0.105636             0       14.8424      -3.07226             0       11.6928             0             0      0.225024   5.53576e-15     0.0216343        102574        103165        155741   1.01425e-14
    0.0225225       288.124       288.033      0.052286       28.3741       3.90006             0       22.7308     0.0283449             0       14.8567      -1.24622             0       13.3266             0             0       0.22691   2.91301e-15     0.0134337        102567        103163        156115   5.33717e-15
     0.023023       288.051       288.055     0.0489606       28.5827       4.16732             0       22.0553      0.169033             0       14.9684      0.646135             0       14.9708             0             0      0.228714      4.04e-16    0.00559173        102560        103160        156484   7.40204e-16
    0.0235235       288.049       288.098     0.0471942       28.2469       4.44044             0       20.3083      0.448826             0        17.101       3.91388             0       16.8318             0             0      0.228807   2.54036e-16    0.00518829        102546        103156        156751   4.65441e-16
     0.024024       288.047       288.141     0.0457637       27.8182       4.69784             0       18.4967       0.72274             0       19.5506       7.11657             0       18.7383             0             0      0.228873   1.13004e-16    0.00489987        102533        103152        157040   2.07045e-16
    0.0245245       288.052       288.199     0.0509945       25.5496       4.64356             0       15.4014       0.88005             0       28.2864         9.029             0        21.549             0             0      0.228415   1.49141e-16    0.00689284        102516        103147        157753   2.73254e-16
     0.025025       288.057       288.255     0.0564965       23.1982       4.56845             0       12.3152       1.02269             0       37.3083       10.7514             0       24.4206             0             0       0.22796   1.85124e-16    0.00886745        102499        103141        158462   3.39182e-16
    0.0255255       288.071       288.304     0.0671511       19.2721       4.09781             0       9.40051      0.886623             0       51.7654        8.8638             0         28.45             0             0      0.227587   2.18199e-16     0.0104933        102487        103135        159087   3.99781e-16
     0.026026       288.086       288.352     0.0776812       15.3224       3.61943             0       6.54608      0.743297             0       65.9841       6.90195             0       32.4731             0             0      0.227228   2.49819e-16     0.0120524        102475        103128        159703   4.57716e-16
    0.0265265       288.113        288.38     0.0859419       10.9404       3.00015             0       4.78976      0.467653             0       75.8573       3.58672             0       36.3789             0             0      0.227149   2.54939e-16     0.0123971        102472        103120        160160   4.67095e-16
     0.027027       288.139       288.407     0.0939156       6.57131       2.38991             0       3.07069      0.186934             0        85.154      0.266778             0       40.2387             0             0      0.227051   2.60909e-16     0.0128215        102469        103112        160642   4.78034e-16
    0.0275275        288.16       288.426     0.0968618       2.42837       1.93808             0       2.00397     -0.182691             0       84.3509      -3.13571             0       43.2928             0             0      0.226632   2.81795e-16     0.0146424        102477        103105        161582   5.16301e-16
     0.028028        288.18       288.443     0.0996288      -1.64333       1.50336             0      0.956798     -0.554119             0       83.1466      -6.51378             0       46.2555             0             0       0.22612   3.06526e-16     0.0168716        102486        103097        162561   5.61613e-16
    0.0285285       288.185       288.456      0.099376      -4.51433       1.35706             0      0.239009     -0.955953             0         75.18         -9.48             0       47.6751             0             0      0.224024   3.96077e-16     0.0259829        102504        103090        164205   7.25686e-16
     0.029029       288.189       288.469     0.0990146      -7.28338       1.22416             0     -0.472752      -1.35596             0       67.0798      -12.3412             0       48.9979             0             0      0.221785    4.8969e-16      0.035719        102522        103083        165881   8.97203e-16
    0.0295295       288.177       288.478     0.0968886      -8.39664       1.30903             0      -1.08663      -1.72627             0       56.8084       -13.497             0       48.7483             0             0      0.217211   6.49284e-16     0.0556031        102540        103078        168084   1.18961e-15
      0.03003       288.164       288.486     0.0947401      -9.44432       1.40041             0      -1.69626      -2.09329             0       46.6292      -14.5313             0       48.4245             0             0      0.212665   8.06869e-16     0.0753712        102559        103073        170298   1.47833e-15
    0.0305305       288.141       288.493     0.0922373      -9.46466       1.59389             0      -2.23928      -2.40869             0       37.8955      -13.6618             0       46.9364             0             0      0.208536   9.32966e-16     0.0933219        102573        103070        172668   1.70937e-15
     0.031031       288.118       288.499     0.0898312      -9.46419       1.78618             0      -2.77669      -2.71817             0        29.444       -12.709             0       45.3952             0             0      0.204566   1.05424e-15      0.110582        102587        103068        175036   1.93157e-15
    0.0315315       288.101       288.502     0.0888868      -9.14895       1.96028             0      -3.22924      -2.93797             0       25.2604      -10.4949             0       43.0505             0             0         0.203   1.10258e-15      0.117393        102596        103068        177378   2.02014e-15
     0.032032       288.085       288.506     0.0880362      -8.82295       2.13099             0       -3.6713      -3.15197             0       21.3491      -8.27224             0       40.6794             0             0      0.201512   1.14905e-15      0.123859        102605        103068        179732   2.10528e-15
    0.0325325       288.081       288.506     0.0885573      -8.33962       2.25217             0      -3.95986      -3.28102             0       21.4203       -5.9225             0       37.9235             0             0      0.201187   1.16814e-15      0.125274        102610        103071        182251   2.14026e-15
     0.033033       288.077       288.507      0.089105      -7.84858       2.36497             0      -4.23618      -3.40478             0       21.6165       -3.6112             0       35.1634             0             0      0.200882   1.18673e-15      0.126599        102616        103074        184814   2.17432e-15
    0.0335335       288.079       288.506     0.0900294      -7.24832       2.35932             0      -4.33933      -3.45357             0       23.5818      -1.84379             0       32.3425             0             0      0.200866   1.19822e-15      0.126672        102619        103079        187986   2.19535e-15
     0.034034       288.081       288.506     0.0909243      -6.63936       2.34333             0       -4.4314      -3.49901             0       25.5384     -0.116975             0       29.5377             0             0      0.200856   1.20972e-15      0.126714        102621        103083        191195   2.21643e-15
    0.0345345       288.091       288.506     0.0914151      -5.91122       2.18575             0       -4.3715      -3.49841             0       27.3785       1.05336             0       26.9544             0             0      0.200941   1.22154e-15      0.126344        102623        103088        194919   2.23808e-15
     0.035035       288.103       288.507     0.0918175      -5.18903       2.02091             0      -4.30367      -3.49486             0       29.1363       2.18993             0       24.3922             0             0       0.20107   1.23315e-15      0.125781        102625        103092        198655   2.25936e-15
    0.0355355        288.13        288.51     0.0910439      -4.54593       1.75967             0      -4.13045      -3.45223             0       29.8013       2.87789             0       22.1116             0             0       0.20179   1.24202e-15      0.122652        102625        103097        202566   2.27562e-15
     0.036036       288.159       288.513     0.0901464      -3.92791       1.49193             0      -3.95075      -3.40658             0       30.3535       3.52321             0       19.8534             0             0      0.202649   1.24942e-15      0.118918        102626        103101        206456   2.28917e-15
    0.0365365       288.207       288.519      0.087653      -3.63328       1.14033             0      -3.68761      -3.32189             0       29.4523       3.61897             0       17.8852             0             0      0.205299   1.23773e-15      0.107397        102626        103104        210089   2.26775e-15
     0.037037       288.255       288.525     0.0851214      -3.35956      0.788647             0      -3.42024       -3.2337             0       28.4596       3.67503             0       15.9468             0             0      0.208023   1.22423e-15     0.0955521        102626        103107        213685   2.24302e-15
    0.0375375       288.287       288.533     0.0821117      -3.34748      0.435862             0      -3.09996      -3.10172             0       26.3236       3.23437             0       14.3834             0             0      0.211677   1.18811e-15      0.079666        102625        103110        216813   2.17683e-15
     0.038038       288.316       288.542     0.0791163      -3.31796     0.0870608             0      -2.77746       -2.9671             0        24.176       2.77945             0       12.8549             0             0      0.215205   1.15204e-15     0.0643249        102624        103112        219898   2.11075e-15
    0.0385385       288.306       288.551     0.0762928      -3.07638     -0.213305             0      -2.42803      -2.80047             0       21.8877       2.15106             0       11.7496             0             0       0.21721   1.11668e-15     0.0556103        102621        103113        222453   2.04597e-15
     0.039039       288.294        288.56     0.0735225      -2.80557     -0.509371             0      -2.07819      -2.63247             0       19.6505       1.52905             0       10.6709             0             0      0.219094   1.08293e-15     0.0474184        102619        103115        224970   1.98413e-15
    0.0395395       288.268       288.567     0.0713819      -2.18916     -0.754612             0      -1.72346      -2.44819             0       18.0165      0.982406             0       9.90601             0             0      0.219557   1.06819e-15     0.0454046        102617        103116        227034   1.95712e-15
      0.04004       288.241       288.574      0.069361      -1.55475     -0.993888             0      -1.36832      -2.26388             0        16.435      0.444749             0       9.15231             0             0      0.219997   1.05475e-15     0.0434911        102614        103117        229063    1.9325e-15
    0.0405405       288.215       288.579     0.0687159     -0.713416      -1.16457             0      -1.00851      -2.07915             0       15.4575     0.0104648             0       8.52695             0             0      0.220172   1.05625e-15     0.0427319        102613        103118        230684   1.93525e-15
     0.041041       288.189       288.583     0.0681459       0.13563      -1.32984             0     -0.647282      -1.89482             0       14.4987     -0.412933             0       7.90376             0             0      0.220341   1.05816e-15     0.0419959        102612        103119        232275   1.93874e-15
    0.0415415       288.166       288.588     0.0684169       1.07104      -1.43455             0     -0.270203      -1.71489             0       13.7479     -0.714462             0       7.30496             0             0      0.220451   1.06453e-15     0.0415192        102611        103120        233541   1.95042e-15
     0.042042       288.143       288.592      0.068714       2.00778      -1.53452             0      0.108114      -1.53586             0       13.0148      -1.00009             0       6.70523             0             0      0.220552   1.07059e-15     0.0410801        102611        103121        234778   1.96153e-15
    0.0425425       288.126       288.596     0.0692959       2.95895       -1.5828             0      0.499919      -1.36671             0       12.4737       -1.1123             0       6.09535             0             0      0.220558    1.0733e-15     0.0410517        102613        103123        235694   1.96648e-15
     0.043043       288.109       288.601     0.0698696       3.90566      -1.62441             0      0.890654      -1.19894             0       11.9801      -1.20856             0        5.4859             0             0      0.220549   1.07497e-15     0.0410908        102615        103125        236584   1.96954e-15
    0.0435435       288.097       288.604      0.070357       4.80493      -1.59499             0       1.27001      -1.04592             0       11.9901      -1.13533             0       4.88102             0             0      0.220375    1.0656e-15     0.0418485        102618        103126        237201   1.95238e-15
     0.044044       288.085       288.608     0.0707654       5.69534      -1.56105             0       1.64713     -0.894478             0       12.0523      -1.05132             0        4.2814             0             0      0.220188   1.05532e-15     0.0426595        102622        103128        237802   1.93354e-15
    0.0445445        288.08       288.611     0.0703555       6.49391      -1.48024             0        2.0012     -0.759419             0        12.655     -0.855486             0       3.73634             0             0      0.219875   1.03556e-15     0.0440231        102627        103130        238221   1.89734e-15
     0.045045       288.075       288.613     0.0697676       7.27527      -1.39447             0       2.35049      -0.62682             0       13.2883     -0.656979             0       3.19736             0             0      0.219565   1.01611e-15     0.0453715        102632        103132        238635    1.8617e-15
    0.0455455       288.077       288.615     0.0673788       7.88259      -1.25854             0       2.65149     -0.519098             0       14.2301     -0.431418             0       2.71977             0             0       0.21929   9.99796e-16     0.0465666        102638        103134        238992   1.83181e-15