#           y             T         TMean   TPrime2Mean           U_x           U_y           U_z       UMean_x       UMean_y       UMean_z UPrime2Mea... UPrime2Mea... UPrime2Mea... UPrime2Mea... UPrime2Mea... UPrime2Mea...            O2           H2O          C3H8             p         pMean   pPrime2Mean           CO2
  1.11022e-19       287.899       288.091       0.12401       20.8579  -3.96835e-16             0       19.8768  -2.09717e-16             0       23.7324  -8.78065e-17             0   4.64278e-16             0             0      0.229859    7.5342e-18   0.000610883        102729        103180        220239   1.38041e-17
  0.000500501       287.899       288.094      0.125746        20.836     -0.191429             0       19.8794     0.0516854             0       23.7812    -0.0616032             0     0.0550647             0             0      0.229609   1.20629e-17    0.00169843        102729        103180        220187   2.21014e-17
     0.001001       287.899       288.096       0.12749       20.8141     -0.382872             0       19.8819      0.103371             0       23.8301     -0.123193             0      0.110292             0             0      0.229357   1.66157e-17    0.00279621        102729        103180        220136    3.0443e-17
    0.0015015       287.903       288.103      0.133645       20.7436     -0.581504             0       19.8908      0.154953             0       23.9715     -0.178033             0      0.246712             0             0       0.22793   3.32042e-17    0.00900032        102730        103180        219956   6.08362e-17
     0.002002       287.908        288.11      0.139807       20.6729     -0.780233             0       19.8997      0.206535             0       24.1136     -0.232879             0      0.383565             0             0      0.226493   4.98497e-17     0.0152466        102730        103180        219776    9.1334e-17
    0.0025025       287.923       288.123       0.14788        20.553      -1.00323             0       19.9158      0.257853             0       24.4488     -0.289248             0      0.628168             0             0      0.222642   8.07109e-17     0.0319893        102731        103179        219504   1.47877e-16
     0.003003       287.938       288.137      0.155936       20.4325      -1.22631             0        19.932      0.309171             0        24.785     -0.345538             0        0.8735             0             0      0.218782   1.11601e-16     0.0487761        102732        103179        219231   2.04474e-16
    0.0035035       287.921       288.155      0.161162       20.2159      -1.46294             0       19.9629      0.360437             0       25.3095     -0.388826             0       1.23959             0             0      0.213244   1.47294e-16     0.0728536        102734        103179        218934   2.69871e-16
     0.004004       287.904       288.174      0.166347       19.9984      -1.69943             0       19.9936       0.41172             0       25.8328     -0.431854             0       1.60667             0             0        0.2077    1.8296e-16     0.0969575        102736        103178        218638   3.35216e-16
    0.0045045       287.862       288.187      0.166527       19.6827      -1.91676             0       20.0138      0.464949             0       26.2083     -0.442725             0       2.09764             0             0      0.201406   2.15178e-16      0.124324        102738        103178        218300   3.94246e-16
   0.00500501       287.821         288.2      0.166667       19.3665       -2.1338             0       20.0334      0.518212             0       26.5783     -0.452438             0       2.58949             0             0      0.195111   2.47394e-16      0.151692        102741        103177        217962   4.53271e-16
   0.00550551       287.835       288.207      0.162777       19.0085      -2.32231             0       19.9954      0.574766             0       26.4112     -0.347419             0        3.1677             0             0      0.188772   2.79367e-16      0.179251        102743        103176        217581   5.11852e-16
   0.00600601       287.849       288.215      0.158898       18.6484      -2.50884             0        19.956      0.631409             0       26.2378     -0.239762             0       3.74572             0             0      0.182446   3.11348e-16      0.206757        102745        103175        217200   5.70447e-16
   0.00650651       287.896       288.223      0.155869       18.1236       -2.5315             0       19.8073      0.695322             0        25.548     0.0850221             0       4.30759             0             0      0.177128   3.43952e-16       0.22988        102746        103175        216828   6.30185e-16
   0.00700701       287.941       288.231      0.152869        17.596      -2.54901             0       19.6567      0.759316             0       24.8561      0.413958             0       4.86872             0             0      0.171825   3.76431e-16      0.252936        102748        103174        216456   6.89692e-16
   0.00750751       287.938       288.243      0.151888       16.8687      -2.20305             0       19.3686       0.82898             0        24.023       1.03531             0       5.37745             0             0      0.167621   4.00077e-16      0.271214        102749        103173        216001   7.33016e-16
   0.00800801       287.933       288.256      0.150966       16.1429      -1.85583             0       19.0785      0.898561             0       23.1924       1.65784             0        5.8859             0             0       0.16342   4.23468e-16      0.289478        102751        103173        215545   7.75873e-16
   0.00850851       287.875       288.273      0.153679       15.5187      -1.43141             0       18.6687      0.962985             0       22.5123       2.35243             0       6.37743             0             0      0.159415   4.31163e-16       0.30689        102752        103172        214975    7.8997e-16
   0.00900901       287.817       288.291      0.156468       14.8972      -1.00927             0       18.2575       1.02688             0       21.8386       3.03841             0       6.87107             0             0      0.155414    4.3868e-16      0.324288        102754        103171        214406   8.03744e-16
   0.00950951       287.766       288.306      0.163324        14.421     -0.711335             0       17.7708       1.06177             0       21.5178       3.25484             0       7.48024             0             0      0.151579   4.36574e-16      0.340963        102755        103170        213885   7.99886e-16
      0.01001       287.715        288.32      0.170157       13.9458     -0.414286             0       17.2842       1.09604             0        21.219        3.4602             0        8.0937             0             0       0.14776     4.344e-16      0.357564        102756        103170        213366   7.95902e-16
    0.0105105       287.669       288.324      0.175884       13.5199     -0.160576             0        16.804       1.09998             0       21.9998       3.12319             0       8.91772             0             0      0.144768   4.28896e-16      0.370572        102756        103168        212936   7.85817e-16
     0.011011       287.621       288.328      0.181585       13.0956     0.0900161             0       16.3242       1.10369             0       22.8215       2.78318             0       9.74411             0             0      0.141822   4.23288e-16      0.383381        102756        103167        212511   7.75543e-16
    0.0115115       287.535       288.315      0.186167       12.7425      0.202055             0       15.8651        1.0964             0       25.4605       2.30985             0       10.6761             0             0      0.140912   4.13072e-16      0.387341        102756        103166        212283   7.56825e-16
     0.012012       287.447       288.303      0.190909       12.3885      0.309714             0       15.4057       1.08919             0       28.1361       1.83832             0       11.6088             0             0      0.140098   4.02709e-16      0.390879        102755        103164        212062   7.37837e-16
    0.0125125       287.322       288.284      0.202123       11.9981      0.239212             0       14.9353       1.08458             0       32.2983       1.43964             0       12.5742             0             0      0.143235   3.86328e-16       0.37724        102754        103163        212140   7.07824e-16
     0.013013       287.197       288.266      0.213581       11.6079      0.164064             0       14.4663       1.07953             0       36.4652         1.038             0       13.5449             0             0      0.146432   3.69935e-16      0.363338        102753        103161        212226   6.77789e-16
    0.0135135       287.094       288.256       0.23414        11.226    -0.0851304             0       14.0555       1.05754             0       40.8096      0.525915             0       14.7131             0             0      0.151899   3.53072e-16      0.339572        102750        103159        212586   6.46894e-16
     0.014014       286.994       288.246      0.254708       10.8477     -0.337727             0       13.6473       1.03501             0       45.1257    0.00929694             0       15.8896             0             0      0.157317   3.36426e-16      0.316015        102747        103157        212953   6.16394e-16
    0.0145145       287.001       288.246      0.275608       10.5949     -0.708449             0       13.3316      0.993781             0       48.4617     -0.664512             0       17.3534             0             0      0.161065    3.2726e-16      0.299719        102742        103155        213537   5.99601e-16
     0.015015       287.012       288.247       0.29634       10.3476       -1.0777             0       13.0168      0.952627             0       51.7577      -1.33721             0       18.8186             0             0      0.164741   3.18304e-16      0.283736        102738        103153        214129   5.83193e-16
    0.0155155       287.119       288.252      0.311613        10.283      -1.39937             0       12.7312      0.914069             0       53.7623      -1.97395             0       20.3333             0             0      0.166087   3.16136e-16      0.277881        102732        103151        214949    5.7922e-16
     0.016016       287.225       288.257      0.326756       10.2233      -1.71691             0        12.446      0.876169             0        55.731      -2.60595             0       21.8456             0             0       0.16741   3.14008e-16      0.272131        102726        103149        215776   5.75322e-16
    0.0165165       287.324       288.265      0.337948       10.3159      -1.90956             0       12.1742      0.858183             0       56.6101      -3.09447             0       23.2862             0             0      0.168008   3.13112e-16      0.269532        102721        103147        216820    5.7368e-16
     0.017017       287.421       288.273      0.349033       10.4113       -2.0985             0       11.9032      0.840998             0       57.4661      -3.58026             0       24.7259             0             0      0.168601   3.12201e-16      0.266951        102715        103145        217868    5.7201e-16
    0.0175175       287.477       288.284       0.35709       10.5887      -2.18173             0       11.6578      0.846572             0       57.6658      -3.98866             0       26.1415             0             0      0.169075   3.10842e-16       0.26489        102711        103143        219044    5.6952e-16
     0.018018       287.533       288.294      0.365011       10.7691      -2.25983             0       11.4125      0.853019             0       57.8434      -4.39656             0       27.5579             0             0       0.16956   3.09453e-16      0.262782        102706        103141        220223   5.66976e-16
    0.0185185       287.569       288.306      0.369306       11.0278      -2.20034             0       11.1736      0.882841             0       57.4285      -4.79134             0       28.9964             0             0      0.170331   3.07277e-16      0.259431        102704        103140        221472   5.62989e-16
     0.019019       287.605       288.317      0.373451       11.2917      -2.13402             0       10.9341      0.913528             0       56.9799        -5.184             0       30.4343             0             0       0.17112   3.05049e-16         0.256        102701        103138        222720   5.58907e-16
    0.0195195        287.64       288.328      0.373812       11.6847      -1.89472             0       10.6789      0.966082             0       55.6795      -5.52302             0       31.8603             0             0      0.172374     3.015e-16      0.250549        102702        103136        223938   5.52404e-16
      0.02002       287.675       288.338      0.374032       12.0796       -1.6492             0       10.4232       1.01969             0       54.3483      -5.85714             0       33.2839             0             0      0.173659   2.97865e-16       0.24496        102702        103135        225152   5.45745e-16
    0.0205205       287.703       288.346      0.370906       12.5184      -1.25418             0       10.1549       1.09853             0       52.2798      -6.07351             0       34.6531             0             0      0.175704   2.92191e-16      0.236072        102705        103133        226298   5.35349e-16
     0.021021        287.73       288.355       0.36781       12.9516     -0.855255             0       9.88713       1.17852             0       50.2032      -6.28126             0       36.0205             0             0      0.177799   2.86394e-16      0.226959        102708        103132        227438   5.24728e-16
    0.0215215       287.717       288.363      0.365396       13.2557     -0.367147             0       9.62976       1.28455             0       47.9436      -6.29224             0       37.3497             0             0      0.181069   2.77784e-16      0.212744        102712        103131        228460   5.08953e-16
     0.022022       287.703       288.371       0.36316        13.556      0.122235             0       9.37411       1.39177             0       45.6913      -6.29299             0        38.678             0             0      0.184381   2.69081e-16      0.198342        102717        103130        229475   4.93007e-16
    0.0225225       287.659       288.379      0.364805       13.7727      0.639301             0       9.15558       1.52475             0       43.5966      -6.07133             0        39.989             0             0      0.188628   2.58354e-16      0.179878        102721        103129        230342   4.73353e-16
     0.023023       287.616       288.386        0.3665       13.9892       1.15614             0       8.93915       1.65878             0       41.5017      -5.83975             0       41.3016             0             0      0.192871   2.47677e-16       0.16143        102726        103128        231200    4.5379e-16
    0.0235235       287.569        288.39       0.36923       14.2039       1.66836             0        8.7665        1.8145             0       39.4043      -5.40232             0       42.6472             0             0      0.197037   2.38023e-16      0.143319        102732        103127        231886   4.36103e-16
     0.024024       287.524       288.393      0.371816        14.418       2.18196             0        8.5953        1.9713             0       37.2992      -4.95169             0       43.9951             0             0      0.201156   2.28553e-16      0.125409        102738        103126        232562   4.18752e-16
    0.0245245       287.489       288.393      0.371552       14.6226       2.72298             0       8.45301       2.14951             0       35.0399      -4.23931             0       45.3908             0             0      0.204357    2.2273e-16      0.111491        102744        103126        233047   4.08083e-16
     0.025025       287.454       288.393      0.371156       14.8226       3.26737             0       8.31161        2.3289             0       32.7846      -3.50808             0       46.7891             0             0      0.207497   2.17106e-16     0.0978399        102750        103125        233517   3.97778e-16
    0.0255255       287.426       288.389      0.368273       14.9365       3.87607             0       8.18716       2.53062             0       30.6043      -2.41856             0       48.2378             0             0      0.209471   2.15261e-16     0.0892552        102757        103125        233685   3.94398e-16
     0.026026       287.398       288.385      0.365386       15.0394       4.48925             0       8.06349       2.73345             0       28.4536      -1.30743             0       49.6909             0             0      0.211397   2.13568e-16      0.080883        102764        103125        233833   3.91296e-16
    0.0265265       287.359       288.378      0.362437       14.9418       5.18409             0       7.95392       2.95633             0       26.8389      0.197615             0       51.2235             0             0      0.212431   2.14653e-16     0.0763857        102771        103125        233614   3.93283e-16
     0.027027        287.32       288.371       0.35948       14.8287       5.88147             0       7.84458       3.17994             0       25.2735       1.72312             0       52.7585             0             0      0.213436   2.15899e-16     0.0720187        102778        103124        233375   3.95567e-16
    0.0275275       287.257       288.361      0.356386       14.4449       6.62357             0       7.73905       3.41643             0       24.5703       3.60705             0       54.3343             0             0      0.213915   2.19975e-16     0.0699331        102783        103125        232781   4.03034e-16
     0.028028       287.194       288.352       0.35319       14.0458       7.36455             0       7.63291       3.65314             0       23.9165       5.50377             0       55.9018             0             0      0.214364   2.24263e-16     0.0679847        102789        103125        232166   4.10892e-16
    0.0285285       287.121       288.343      0.348286       13.3888       8.08667             0       7.51633        3.8937             0       24.0955       7.61597             0       57.3286             0             0       0.21428   2.32145e-16     0.0683487        102793        103125        231205   4.25334e-16
     0.029029       287.049       288.334      0.343242       12.7225       8.80102             0       7.39886       4.13415             0       24.3116       9.72748             0       58.7364             0             0      0.214157   2.40269e-16     0.0688806        102797        103126        230232   4.40218e-16
    0.0295295       286.991       288.328       0.33591       11.9061        9.3891             0       7.26668        4.3729             0       25.1294       11.8278             0       59.8334             0             0      0.213408   2.52322e-16     0.0721411        102799        103126        229066   4.62301e-16
      0.03003       286.935       288.322      0.328518       11.0896       9.96244             0       7.13407       4.61147             0       25.9731       13.9148             0       60.9094             0             0       0.21258   2.64693e-16     0.0757391        102801        103127        227894   4.84967e-16
    0.0305305        286.91       288.318      0.320167       10.2713       10.3048             0       6.99476       4.84715             0       27.2218       15.7931             0       61.6563             0             0      0.210536   2.82049e-16     0.0846253        102803        103128        226609   5.16766e-16
     0.031031       286.888       288.314      0.311825       9.46291       10.6271             0       6.85556       5.08253             0       28.4918       17.6511             0       62.3867             0             0      0.208393   2.99719e-16     0.0939437        102805        103129        225325    5.4914e-16
    0.0315315       286.916       288.311      0.303624       8.80234       10.6478             0       6.71802       5.31333             0       30.0835       19.1999             0       62.8684             0             0      0.204746   3.22147e-16      0.109801        102806        103130        224049   5.90233e-16
     0.032032       286.947       288.308      0.295516       8.15522       10.6493             0       6.58065       5.54343             0       31.6955       20.7252             0       63.3374             0             0      0.201044   3.44713e-16      0.125898        102807        103131        222785   6.31578e-16
    0.0325325       287.035       288.303      0.288778       7.70495        10.372             0       6.44603        5.7635             0       33.6056       21.9059             0       63.6201             0             0      0.196539    3.6929e-16      0.145484        102809        103133        221669   6.76608e-16
     0.033033       287.124       288.299      0.282267       7.26089        10.087             0       6.31134        5.9822             0       35.5308       23.0591             0       63.8882             0             0      0.192054   3.93787e-16      0.164981        102811        103134        220567   7.21492e-16
    0.0335335       287.244       288.293      0.278971       6.90484       9.69371             0       6.17561       6.18159             0       37.6703        23.823             0       63.9502             0             0      0.187863   4.17163e-16      0.183203        102811        103136        219647    7.6432e-16
     0.034034       287.366       288.288      0.275934       6.54591       9.30442             0       6.03936       6.37877             0       39.8133        24.553             0       63.9902             0             0      0.183715    4.4069e-16      0.201238        102811        103138        218743   8.07426e-16
    0.0345345       287.517       288.282      0.276455       6.14747       8.96952             0       5.89587        6.5455             0       42.0048       24.8178             0       63.7303             0             0      0.180157     4.663e-16       0.21671        102810        103140        218072   8.54349e-16
     0.035035       287.669       288.277      0.277129       5.74727       8.63942             0        5.7511       6.70905             0       44.1885       25.0434             0       63.4404             0             0      0.176636   4.92104e-16      0.232017        102809        103142        217421   9.01626e-16
    0.0355355        287.84       288.272       0.27984       5.32352       8.37322             0       5.58943       6.83034             0       46.2677       24.7488             0       62.7513             0             0      0.173619   5.20474e-16      0.245136        102810        103144        217041   9.53606e-16
     0.036036       288.007       288.267      0.282499       4.90896       8.10111             0       5.42552       6.94763             0       48.3336       24.4135             0       62.0261             0             0      0.170722   5.48293e-16       0.25773        102812        103147        216679   1.00457e-15
    0.0365365       288.123       288.265       0.28447       4.61274       7.75287             0       5.23275       7.01351             0       50.2296       23.5556             0       60.8354             0             0      0.169386   5.69003e-16       0.26354        102812        103150        216551   1.04252e-15
     0.037037       288.232       288.262      0.286305       4.33176       7.39074             0       5.03693       7.07495             0       52.1118       22.6598             0       59.6053             0             0      0.168242   5.88902e-16      0.268515        102813        103153        216439   1.07898e-15
    0.0375375       288.251       288.262      0.286432       4.24157       6.85481             0       4.80281       7.08082             0       53.8229       21.2913             0       57.8819             0             0      0.169502   5.98641e-16      0.263033        102812        103156        216517   1.09682e-15
     0.038038       288.264       288.261      0.286481       4.16098       6.31268             0       4.56494       7.08222             0       55.5257       19.8946             0       56.1198             0             0      0.170898   6.08157e-16      0.256966        102812        103159        216611   1.11426e-15
    0.0385385       288.219       288.261      0.285565       4.19706       5.69526             0       4.28145       7.02937             0       57.1282       18.1554             0       53.8864             0             0      0.173933   6.14954e-16      0.243769        102810        103163        216896   1.12671e-15
     0.039039       288.172        288.26      0.284462       4.23437       5.08337             0       3.99395       6.97212             0       58.7281       16.4014             0       51.6206             0             0      0.176966    6.2197e-16      0.230584        102809        103167        217195   1.13956e-15
    0.0395395       288.113        288.26      0.281156       4.28617       4.53681             0       3.65913       6.86308             0       60.2967       14.4729             0       48.9718             0             0      0.179964   6.31584e-16      0.217546        102807        103171        217663   1.15718e-15
      0.04004       288.056       288.261      0.277531       4.33852       3.99844             0       3.32144       6.74948             0       61.8472       12.5365             0       46.3025             0             0      0.182866   6.41057e-16      0.204931        102806        103175        218142   1.17454e-15
    0.0405405       288.016       288.263      0.270234       4.39715       3.55415             0       2.95065       6.58347             0       63.1901       10.5095             0       43.3981             0             0      0.184647   6.48916e-16      0.197185        102805        103180        218743   1.18894e-15
     0.041041       287.978       288.265      0.262766       4.46117        3.1148             0       2.57931       6.41282             0       64.4766       8.47689             0       40.4809             0             0      0.186346   6.56327e-16      0.189799        102803        103184        219346   1.20251e-15
    0.0415415       287.957       288.269      0.253392       4.58549        2.7307             0       2.20188       6.19014             0        65.132       6.38153             0       37.4204             0             0      0.187119   6.58714e-16      0.186441        102802        103189        219977   1.20689e-15
     0.042042       287.935       288.274      0.244015       4.72006       2.35055             0       1.82552       5.96314             0       65.7166       4.29046             0       34.3517             0             0      0.187855   6.60661e-16      0.183238        102801        103194        220608   1.21046e-15
    0.0425425       287.919        288.28      0.234601       4.96642       2.01361             0       1.46096       5.68902             0       65.5297       2.24618             0       31.1923             0             0        0.1882   6.57812e-16       0.18174        102799        103198        221236   1.20523e-15
     0.043043       287.903       288.287      0.225136       5.22383        1.6838             0       1.09701        5.4116             0        65.311      0.220988             0       28.0352             0             0      0.188531   6.54991e-16      0.180298        102798        103203        221868   1.20007e-15
    0.0435435       287.885       288.298      0.215139       5.59868       1.42976             0      0.739559       5.09923             0       64.7546      -1.60138             0       24.9019             0             0      0.188728   6.52483e-16      0.179445        102796        103208        222529   1.19547e-15
     0.044044       287.865        288.31       0.20514       5.97356       1.18762             0      0.383741       4.78383             0       64.1649      -3.37886             0       21.7846             0             0      0.188945   6.51504e-16      0.178498        102794        103212        223193   1.19368e-15
    0.0445445       287.827       288.326      0.195114       6.34881       1.06867             0     0.0448666       4.43715             0         63.23      -4.69111             0       18.8324             0             0      0.189385   6.66373e-16      0.176586        102793        103217        223870   1.22092e-15
     0.045045       287.788       288.342      0.185397        6.7005      0.964348             0     -0.289245       4.08664             0       62.2158      -5.93144             0       15.9057             0             0      0.189853   6.83861e-16      0.174552        102791        103221        224549   1.25296e-15
    0.0455455       287.731       288.355      0.178794       6.81409       1.00782             0     -0.575202       3.69739             0       60.3996      -6.44447             0       13.2368             0             0      0.190607   7.27828e-16      0.171275        102790        103225        225234   1.33352e-15