#           y             T         TMean   TPrime2Mean           U_x           U_y           U_z       UMean_x       UMean_y       UMean_z UPrime2Mea... UPrime2Mea... UPrime2Mea... UPrime2Mea... UPrime2Mea... UPrime2Mea...            O2           H2O          C3H8             p         pMean   pPrime2Mean           CO2
  1.11022e-19       288.131       288.023     0.0877472       25.5536  -9.62655e-16             0       22.3902   -3.3912e-16             0       10.7154   7.67838e-17             0   1.06702e-16             0             0      0.229998   8.39917e-17   9.26996e-06        102614        103150        195534   1.53889e-16
  0.000500501       288.133       288.024     0.0878405       25.5706     0.0407896             0       22.3916     0.0146568             0       10.7375     -0.145141             0     0.0308652             0             0      0.229991   6.46061e-16   3.85647e-05        102613        103150        195460   1.18371e-15
     0.001001       288.134       288.024     0.0879445       25.5876     0.0815975             0       22.3929     0.0293135             0       10.7598     -0.290293             0     0.0618589             0             0      0.229984    1.2386e-15     6.845e-05        102613        103150        195385   2.26935e-15
    0.0015015       288.152       288.031       0.09335       25.6162      0.131542             0       22.3961     0.0439006             0       10.8192     -0.440437             0      0.156955             0             0       0.22991   1.70349e-14   0.000393015        102612        103150        195220   3.12111e-14
     0.002002       288.171       288.038     0.0995218       25.6448      0.181626             0       22.3994     0.0584798             0       10.8791     -0.590652             0      0.252482             0             0      0.229833   3.35682e-14   0.000724851        102611        103150        195056   6.15033e-14
    0.0025025       288.299       288.076      0.296517       25.7042      0.266706             0       22.4062     0.0710606             0       11.0398     -0.758685             0      0.455076             0             0      0.229341   2.33632e-13    0.00286723        102610        103149        194854   4.28058e-13
     0.003003       288.429       288.113      0.500191       25.7636      0.351837             0       22.4131     0.0836408             0       11.2012     -0.927055             0      0.658893             0             0       0.22884    4.4068e-13    0.00504492        102608        103149        194653   8.07408e-13
    0.0035035       288.956       288.206        1.8104       25.8411      0.445676             0       22.4367     0.0961012             0       11.4806      -1.15147             0       1.06512             0             0      0.226993   1.80466e-12     0.0130726        102607        103148        194482   3.30647e-12
     0.004004       289.491         288.3       3.14055       25.9173      0.540738             0       22.4607      0.108532             0        11.761      -1.37685             0       1.47328             0             0      0.225131   3.20284e-12     0.0211715        102605        103147        194312    5.8682e-12
    0.0045045       290.865        288.43       6.94417       25.8397      0.787483             0       22.5206      0.117337             0       12.1707      -1.72313             0       2.12018             0             0      0.221237   8.84284e-12     0.0381012        102604        103146        194230   1.62017e-11
   0.00500501       292.249       288.561       10.7617       25.7612       1.03373             0       22.5811      0.126186             0       12.5805      -2.06967             0       2.76722             0             0      0.217326   1.45921e-11     0.0551061        102603        103145        194149   2.67355e-11
   0.00550551       294.717       288.684       15.9572       25.6016        1.2308             0       22.6979      0.139379             0       13.0016      -2.44172             0        3.4294             0             0      0.211703   3.11601e-11     0.0795526        102602        103144        194095   5.70912e-11
   0.00600601       297.202       288.807       21.1365       25.4369       1.42819             0       22.8134      0.152573             0       13.4201      -2.81357             0       4.09021             0             0      0.206088   4.78262e-11      0.103965        102601        103142        194039   8.76265e-11
   0.00650651       301.041       288.894       24.9867       24.8504       1.65101             0       22.8238      0.165785             0       13.6329      -3.16856             0        4.6383             0             0      0.201122   7.25654e-11      0.125555        102598        103141        193894   1.32953e-10
   0.00700701       304.893       288.981       28.8013       24.2549       1.87642             0       22.8296      0.179034             0       13.8401      -3.52042             0       5.18479             0             0      0.196187   9.71854e-11      0.147015        102596        103140        193748   1.78062e-10
   0.00750751       309.634       289.047       30.1117       23.0362       2.28489             0        22.504      0.194952             0       13.6555      -3.65228             0       5.61853             0             0       0.19335   1.13415e-10      0.159346        102595        103138        193558   2.07797e-10
   0.00800801       314.388       289.111       31.3901       21.8181       2.69074             0       22.1698      0.211088             0       13.4618      -3.77857             0       6.05118             0             0      0.190529   1.29385e-10      0.171611        102594        103137        193365   2.37058e-10
   0.00850851       319.942       289.145       30.7041       20.6421        2.9351             0       21.3032      0.240642             0       12.7065      -3.56302             0       6.41698             0             0      0.188633   1.29443e-10      0.179857        102596        103136        193061   2.37164e-10
   0.00900901       325.509       289.177       30.0067       19.4727       3.17085             0       20.4281      0.270119             0       11.9425      -3.34252             0       6.77679             0             0      0.186712   1.29249e-10      0.188209        102598        103135        192752   2.36809e-10
   0.00950951        331.74       289.143       28.6883       18.6686       2.93657             0       19.0859      0.295388             0        10.696      -2.85161             0       6.81031             0             0      0.183462   1.15359e-10       0.20234        102602        103135        192211   2.11359e-10
      0.01001        337.93       289.108       27.3511        17.865       2.69793             0       17.7436       0.31996             0       9.45946      -2.36313             0       6.83768             0             0      0.180136   1.01414e-10      0.216802        102606        103134        191667   1.85809e-10
    0.0105105       342.069       288.997        25.095       17.0929       2.24582             0       16.4046      0.310369             0       8.71417      -1.99329             0        6.5639             0             0      0.173079   8.47768e-11      0.247481        102607        103135        190968   1.55327e-10
     0.011011       346.086       288.886       22.8251       16.3282       1.79626             0       15.0766      0.299596             0       8.00065      -1.63942             0       6.29749             0             0       0.16594   6.83121e-11      0.278522        102607        103135        190270    1.2516e-10
    0.0115115       344.689       288.748       19.9395       15.8881       1.45966             0       14.2405      0.236269             0       8.69963      -1.99506             0       6.35866             0             0      0.155107   5.94926e-11      0.325623        102607        103135        189618   1.09002e-10
     0.012012       343.224        288.61       17.0673       15.4576        1.1248             0       13.4173      0.173122             0        9.4308      -2.36393             0       6.43236             0             0      0.144344   5.08239e-11      0.372418        102606        103135        188965   9.31189e-11
    0.0125125       338.964       288.517       14.7404       15.4176      0.860638             0       13.1201       0.11733             0        11.471      -3.27074             0       7.01565             0             0      0.136438   4.82855e-11      0.406791        102607        103134        188293    8.8468e-11
     0.013013         334.7       288.426       12.4243       15.3888      0.595947             0       12.8313     0.0614606             0       13.5434      -4.18127             0       7.61035             0             0       0.12873   4.58435e-11      0.440303        102607        103133        187618   8.39938e-11
    0.0135135        330.24       288.391       10.5089        15.778      0.311588             0       12.8565    0.00271433             0        16.822      -5.23113             0       8.63207             0             0      0.128438   4.70146e-11      0.441572        102607        103132        186859   8.61395e-11
     0.014014        325.77       288.356       8.59835       16.1936     0.0200088             0       12.8893    -0.0556675             0        20.114       -6.2787             0         9.665             0             0      0.128182   4.80801e-11      0.442688        102606        103130        186098   8.80918e-11
    0.0145145       320.943       288.348       6.85264       17.5251     -0.522178             0       13.1866     -0.101399             0       23.8674      -7.24693             0       11.0871             0             0      0.129148    4.5479e-11      0.438488        102605        103128        185318   8.33261e-11
     0.015015        316.18        288.34       5.12148       18.8737      -1.07108             0       13.4907     -0.146822             0       27.6079      -8.20709             0       12.5184             0             0      0.130219   4.26787e-11      0.433833        102604        103126        184541   7.81954e-11
    0.0155155       313.519       288.334       3.86079       20.7779      -1.83711             0       14.0157     -0.182261             0       30.9334      -8.90656             0       14.2448             0             0      0.134671   3.34373e-11      0.414474        102603        103123        183851   6.12633e-11
     0.016016       310.824       288.328       2.61974       22.6724      -2.60421             0       14.5482     -0.216844             0       34.2551      -9.58606             0       15.9754             0             0      0.139512   2.42239e-11      0.393426        102602        103121        183172   4.43827e-11
    0.0165165       307.102       288.319       1.97286       24.2777      -3.40377             0       15.3055     -0.225549             0       37.4606       -9.6612             0       17.8308             0             0      0.156102   1.58579e-11      0.321296        102601        103117        182870   2.90546e-11
     0.017017       303.326       288.309       1.33634       25.8438      -4.19911             0       16.0724     -0.232279             0       40.6696       -9.6874             0       19.6869             0             0      0.172699   7.66249e-12      0.249134        102601        103113        182590   1.40391e-11
    0.0175175       297.993       288.288       0.99419       26.2984      -4.87433             0        17.108     -0.182898             0        43.978      -8.32291             0       21.5618             0             0      0.189509    4.3128e-12      0.176048        102599        103109        182972   7.90185e-12
     0.018018       292.772       288.267      0.659498       26.7112       -5.5383             0       18.1387     -0.131949             0       47.2632      -6.92208             0       23.4378             0             0      0.205915   1.06611e-12      0.104718        102597        103105        183382   1.95331e-12
    0.0185185       290.536       288.228      0.524458       26.0038       -5.9011             0       19.0387    -0.0390131             0       49.9289      -4.54819             0       25.3417             0             0      0.211514   5.77468e-13     0.0803756        102593        103100        184570   1.05803e-12
     0.019019        288.38       288.189      0.391897       25.2782       -6.2536             0        19.922     0.0525514             0       52.5373      -2.18369             0       27.2487             0             0      0.216867   1.05624e-13     0.0570992        102589        103096        185786   1.93522e-13
    0.0195195       288.219       288.153      0.322111       24.0905      -6.34531             0       20.3784      0.109391             0        53.697    -0.0570959             0        29.232             0             0      0.216014    5.8915e-14     0.0608074        102586        103091        187717   1.07943e-13
      0.02002       288.064       288.118       0.25385       22.9094      -6.43427             0        20.823      0.164933             0       54.7706       2.04711             0       31.2281             0             0      0.215087   1.38262e-14     0.0648372        102582        103085        189673   2.53322e-14
    0.0205205       288.058       288.105      0.222188       21.8864      -6.45729             0       20.9833      0.189311             0       53.7794       3.61402             0       33.5315             0             0      0.212385   7.61589e-15     0.0765872        102577        103080        192231   1.39537e-14
     0.021021       288.052       288.092      0.191295       20.8882      -6.49228             0       21.1341       0.21265             0       52.7084       5.15957             0       35.8453             0             0      0.209699   1.65191e-15     0.0882651        102573        103075        194804   3.02661e-15
    0.0215215       288.068       288.095      0.177947       20.4586      -6.80005             0       21.0697      0.212314             0       49.8146       6.21799             0       38.3979             0             0      0.207391   1.30693e-15        0.0983        102569        103069        197716   2.39453e-15
     0.022022       288.083       288.098       0.16469       20.0381      -7.11354             0       20.9941      0.210548             0        46.881       7.25938             0       40.9553             0             0       0.20512   9.76799e-16      0.108173        102565        103064        200642   1.78968e-15
    0.0225225       288.097        288.11      0.153407       19.8177      -7.55144             0       20.6765      0.177717             0       43.0832       7.93097             0       43.6158             0             0      0.203661   9.69483e-16      0.114518        102560        103058        203866   1.77627e-15
     0.023023        288.11       288.123      0.142334       19.5876      -7.98638             0       20.3463      0.142919             0       39.3159         8.586             0       46.2814             0             0      0.202226   9.62702e-16      0.120755        102555        103052        207108   1.76385e-15
    0.0235235       288.123       288.143       0.13559       19.1573      -8.35993             0       19.7533       0.06731             0       36.1784       8.89759             0       49.0493             0             0      0.201308   9.66998e-16      0.124747        102550        103047        210727   1.77172e-15
     0.024024       288.136       288.163      0.129059       18.7342       -8.7363             0        19.157    -0.0102223             0       33.1325       9.20534             0       51.8235             0             0       0.20041   9.71055e-16       0.12865        102544        103041        214368   1.77915e-15
    0.0245245       288.144       288.187      0.126743       18.4539      -9.16856             0       18.4975     -0.125907             0       31.9024       9.43665             0       54.7224             0             0      0.199916   9.70372e-16        0.1308        102538        103035        218443    1.7779e-15
     0.025025       288.152        288.21      0.124531       18.1828      -9.60297             0       17.8442     -0.242166             0       30.7133        9.6817             0       57.6266             0             0      0.199454   9.69032e-16       0.13281        102531        103030        222538   1.77545e-15
    0.0255255       288.143       288.229      0.124316       18.0866      -10.0785             0       17.3091     -0.369339             0       30.3035       10.1876             0       60.6327             0             0      0.199598   9.55215e-16      0.132183        102524        103024        227027   1.75013e-15
     0.026026       288.132       288.248      0.124061       17.9873      -10.5521             0       16.7754     -0.496933             0       29.8689       10.6963             0       63.6357             0             0      0.199788   9.40226e-16      0.131357        102516        103018        231528   1.72267e-15
    0.0265265       288.094       288.259       0.12308       17.8329      -10.9904             0       16.2686       -0.6322             0       28.9841       11.2565             0       66.5822             0             0       0.20081   9.03865e-16      0.126914        102507        103011        236241   1.65605e-15
     0.027027       288.055        288.27      0.122022       17.6742      -11.4281             0       15.7558     -0.768348             0       28.0791       11.8052             0       69.5188             0             0      0.201835   8.67564e-16      0.122458        102499        103005        240953   1.58954e-15
    0.0275275       288.014       288.278      0.119631       17.4398       -11.857             0       15.1397     -0.919941             0       26.8192       12.1519             0       72.2809             0             0      0.202916   8.32315e-16      0.117755        102489        102997        245662   1.52496e-15
     0.028028       287.973       288.287      0.117258       17.1993      -12.2838             0       14.5175      -1.07239             0       25.5595       12.4888             0       75.0218             0             0      0.203992   7.97317e-16      0.113079        102479        102990        250351   1.46083e-15
    0.0285285       287.942       288.293      0.115172       16.8574      -12.6755             0       13.7933      -1.23934             0       24.3023       12.6595             0       77.4066             0             0      0.204963   7.66548e-16      0.108857        102468        102982        254730   1.40446e-15
     0.029029        287.91       288.298       0.11318       16.5066      -13.0646             0       13.0633      -1.40686             0       23.0727       12.8245             0       79.7581             0             0       0.20595   7.35566e-16      0.104565        102457        102975        259058   1.34769e-15
    0.0295295       287.879       288.299        0.1127       16.0118      -13.4124             0       12.2394      -1.58382             0       22.2926       12.8987             0       81.5703             0             0      0.207202   7.01127e-16     0.0991239        102445        102967        262560    1.2846e-15
      0.03003       287.848         288.3      0.112254       15.5091      -13.7573             0        11.411      -1.76132             0       21.5696       12.9754             0       83.3378             0             0      0.208458   6.67086e-16     0.0936625        102433        102960        265984   1.22223e-15
    0.0305305       287.822       288.299      0.112352       14.8827      -14.0562             0       10.5125      -1.94741             0       21.7423       13.0925             0        84.405             0             0      0.209789   6.39286e-16     0.0878756        102421        102954        268182   1.17129e-15
     0.031031       287.796       288.298       0.11241       14.2468      -14.3512             0       9.61087       -2.1332             0       21.9825       13.2196             0       85.4226             0             0      0.211105   6.12172e-16      0.082153        102408        102947        270295   1.12161e-15
    0.0315315       287.779       288.296      0.111855       13.4676      -14.5868             0       8.66061      -2.31439             0       23.2432       13.4979             0       85.6895             0             0      0.212197   5.95438e-16     0.0774039        102396        102942        271107   1.09095e-15
     0.032032       287.762       288.295      0.111297       12.6788      -14.8184             0       7.70895      -2.49491             0       24.5469       13.7828             0       85.9119             0             0      0.213264   5.79687e-16     0.0727656        102383        102937        271847   1.06209e-15
    0.0325325       287.753       288.293      0.110703       11.7491       -14.993             0       6.73703      -2.66558             0       26.4803       14.1644             0       85.4841             0             0      0.213958   5.78296e-16     0.0697497        102372        102933        271543   1.05955e-15
     0.033033       287.744        288.29      0.110157        10.811      -15.1643             0       5.76555      -2.83526             0        28.401       14.5388             0       85.0213             0             0      0.214648   5.77616e-16     0.0667488        102361        102929        271203    1.0583e-15
    0.0335335        287.74       288.289      0.110274       9.75354      -15.2876             0       4.80031      -2.99098             0        30.143       14.8127             0        84.062             0             0      0.215289   5.87008e-16     0.0639595        102352        102927        270355   1.07551e-15
     0.034034       287.737       288.287       0.11044       8.69002      -15.4094             0       3.83608       -3.1457             0       31.8166         15.06             0       83.0728             0             0      0.215926   5.96511e-16     0.0611899        102343        102924        269503   1.09292e-15
    0.0345345       287.741       288.287       0.11127         7.543      -15.5094             0       2.88572      -3.28662             0       32.5547       14.9414             0       81.6745             0             0      0.216502   6.07543e-16      0.058689        102336        102923        268582   1.11313e-15
     0.035035       287.746       288.287       0.11213       6.39196      -15.6094             0       1.93589      -3.42683             0       33.2044       14.7824             0       80.2462             0             0      0.217057   6.18315e-16     0.0562726        102330        102921        267668   1.13287e-15
    0.0355355       287.755       288.288      0.113397       5.18749      -15.7098             0      0.993018      -3.55762             0       32.6795       14.0858             0       78.4204             0             0      0.217355   6.25643e-16     0.0549784        102327        102921        266836   1.14629e-15
     0.036036       287.765       288.289      0.114705       3.97838      -15.8086             0     0.0500565      -3.68794             0       32.1056       13.3519             0       76.5618             0             0      0.217634   6.32841e-16      0.053767        102325        102921        266000   1.15948e-15
    0.0365365       287.776       288.291      0.116533       2.70935      -15.8868             0     -0.894063      -3.81233             0       30.8993       12.1356             0       74.2791             0             0      0.217667   6.38383e-16     0.0536217        102326        102923        265116   1.16964e-15
     0.037037       287.786       288.293      0.118434       1.43461      -15.9578             0      -1.83819      -3.93554             0        29.714       10.9089             0       71.9642             0             0      0.217689   6.43813e-16     0.0535254        102327        102925        264208   1.17958e-15
    0.0375375       287.795       288.294      0.121244     0.0882376      -15.9402             0      -2.78234      -4.04397             0       28.7919       9.55198             0       69.2456             0             0       0.21757   6.47832e-16     0.0540425        102332        102928        263002   1.18695e-15
     0.038038       287.803       288.295      0.124118      -1.26141      -15.9106             0      -3.72508       -4.1501             0       27.9458       8.22398             0       66.4996             0             0      0.217434   6.51815e-16     0.0546343        102337        102932        261758   1.19425e-15
    0.0385385       287.811       288.295      0.127768      -2.65098      -15.7356             0      -4.65071      -4.22822             0       28.0234       7.24785             0       63.4202             0             0      0.217089   6.55367e-16     0.0561339        102345        102937        260052   1.20075e-15
     0.039039       287.818       288.295      0.131469      -4.03906      -15.5473             0      -5.57179        -4.303             0       28.1991       6.32957             0       60.3236             0             0      0.216728   6.58911e-16     0.0577026        102354        102943        258308   1.20725e-15
    0.0395395        287.82       288.293      0.135786      -5.40955      -15.2009             0       -6.4392      -4.33843             0       29.5349       6.09516             0       57.0241             0             0      0.216179    6.6237e-16     0.0600892        102366        102950        256119   1.21358e-15
      0.04004       287.821       288.291      0.139991      -6.77259      -14.8427             0      -7.29775      -4.36984             0       30.9609       5.92222             0       53.7161             0             0      0.215627     6.657e-16     0.0624922        102378        102958        253901   1.21969e-15
    0.0405405       287.816       288.289      0.142911      -8.05004      -14.3494             0      -8.05442      -4.35503             0       33.4245        6.4563             0       50.3114             0             0      0.215031   6.67549e-16     0.0650845        102393        102967        251354   1.22307e-15
     0.041041       287.811       288.286      0.145491      -9.31637      -13.8478             0      -8.79818      -4.33566             0       35.9407       7.03183             0       46.9027             0             0      0.214435   6.69317e-16     0.0676729        102407        102975        248798   1.22631e-15
    0.0415415       287.804       288.287       0.14427      -10.4582      -13.2526             0      -9.39741      -4.26527             0        39.046       8.07151             0       43.4503             0             0       0.21385   6.70184e-16     0.0702187        102424        102985        246133    1.2279e-15
     0.042042       287.797       288.288      0.142933       -11.588      -12.6531             0      -9.98156      -4.19014             0       42.1538       9.12274             0        40.001             0             0      0.213216   6.70938e-16     0.0729756        102441        102995        243481   1.22928e-15
    0.0425425       287.782       288.291      0.140323      -12.5875      -12.0055             0      -10.4014      -4.06323             0       45.2893          10.3             0       36.5836             0             0      0.212052   6.70466e-16     0.0780354        102458        103005        240964   1.22842e-15
     0.043043       287.766       288.294      0.137852      -13.5727      -11.3558             0      -10.8063      -3.93125             0        48.416       11.4622             0       33.1802             0             0      0.210785   6.69627e-16     0.0835444        102475        103014        238477   1.22688e-15
    0.0435435       287.745       288.295       0.13687       -14.407      -10.6845             0      -11.0525       -3.7454             0       51.4484       12.4653             0       29.9248             0             0      0.208419   6.64885e-16     0.0938286        102492        103023        236307   1.21819e-15
     0.044044       287.725       288.296      0.135906      -15.2174      -10.0094             0      -11.2846      -3.55516             0       54.5214       13.4458             0       26.6917             0             0       0.20597   6.59609e-16      0.104479        102509        103032        234181   1.20853e-15
    0.0445445       287.721       288.293      0.135142       -15.781       -9.2957             0      -11.3705      -3.31943             0       58.0149       14.1914             0       23.6904             0             0      0.202648   6.48812e-16      0.118922        102525        103041        232515   1.18874e-15
     0.045045       287.717       288.289       0.13443      -16.3021      -8.57385             0      -11.4437      -3.08051             0       61.6342       14.9074             0       20.7106             0             0      0.199376   6.37983e-16      0.133146        102542        103049        230896    1.1689e-15
    0.0455455        287.73       288.282      0.134233      -16.3932      -7.77001             0      -11.3885      -2.80923             0       66.5255       15.3237             0       17.9471             0             0      0.196614   6.26835e-16      0.145157        102557        103057        229747   1.14848e-15