#           y             T         TMean   TPrime2Mean           U_x           U_y           U_z       UMean_x       UMean_y       UMean_z UPrime2Mea... UPrime2Mea... UPrime2Mea... UPrime2Mea... UPrime2Mea... UPrime2Mea...            O2           H2O          C3H8             p         pMean   pPrime2Mean           CO2
  1.11022e-19       287.762       288.206      0.179781       29.4778   3.08065e-17             0       15.9418    1.0268e-17             0       28.8295   1.73033e-17             0   2.24324e-17             0             0      0.229577   2.51082e-17    0.00183996        102420        103220        241670   4.60029e-17
  0.000500501       287.767       288.206      0.185402       29.4832      0.138879             0       15.9521     0.0462893             0       28.8577     0.0780053             0      0.101128             0             0      0.229339   3.07954e-17    0.00287276        102419        103220        241646   5.64228e-17
     0.001001       287.772       288.205      0.191041       29.4886      0.277756             0       15.9624     0.0925781             0       28.8861      0.155989             0      0.202496             0             0        0.2291   3.65043e-17    0.00391165        102419        103220        241622   6.68827e-17
    0.0015015       287.794       288.205      0.205318       29.5019      0.415384             0        15.986      0.138668             0       28.9983      0.223068             0      0.423935             0             0      0.228161   5.30963e-17    0.00799501        102418        103219        241547   9.72823e-17
     0.002002       287.815       288.206        0.2196       29.5153      0.552997             0       16.0096      0.184756             0       29.1105      0.290134             0      0.645819             0             0      0.227218   6.97234e-17     0.0120977        102418        103219        241471   1.27746e-16
    0.0025025        287.86       288.211      0.235267       29.5226      0.686625             0       16.0189      0.230477             0       29.2181      0.354007             0      0.978437             0             0      0.225166   9.50927e-17     0.0210155        102416        103219        241394   1.74228e-16
     0.003003       287.906       288.216      0.250904       29.5302       0.82023             0       16.0279      0.276196             0       29.3241      0.417958             0       1.31154             0             0      0.223109   1.20486e-16     0.0299624        102415        103218        241317   2.20753e-16
    0.0035035       287.974       288.229      0.261369       29.5918      0.949972             0       15.9979      0.321809             0       29.1768      0.494786             0       1.72529             0             0      0.219945   1.49892e-16     0.0437186        102413        103218        241222    2.7463e-16
     0.004004       288.041       288.243      0.271798       29.6536       1.07996             0       15.9676      0.367434             0        29.027      0.571887             0       2.13949             0             0      0.216782   1.79243e-16     0.0574708        102411        103217        241127   3.28407e-16
    0.0045045        288.09       288.261      0.277728       29.7569       1.24054             0        15.898      0.414703             0       28.5607      0.682792             0       2.61014             0             0      0.213733   2.01862e-16     0.0707249        102408        103217        241011   3.69849e-16
   0.00500501       288.139        288.28      0.283638       29.8603       1.40204             0       15.8283      0.461971             0        28.094      0.793843             0       3.08129             0             0      0.210688   2.24409e-16     0.0839653        102406        103216        240896   4.11158e-16
   0.00550551       288.159       288.296      0.287662       29.9865        1.6553             0        15.737      0.509183             0        27.587      0.919401             0       3.60161             0             0      0.207954   2.39826e-16     0.0958542        102403        103215        240812   4.39406e-16
   0.00600601       288.179       288.313      0.291658        30.114       1.90969             0       15.6457      0.556365             0       27.0827       1.04426             0       4.12273             0             0      0.205209   2.55282e-16      0.107789        102400        103215        240729   4.67724e-16
   0.00650651       288.225       288.327      0.293391       30.3534        2.2569             0       15.5579      0.601151             0       26.8046       1.11181             0        4.7089             0             0      0.201594   2.73915e-16      0.123503        102396        103214        240647   5.01863e-16
   0.00700701        288.27       288.341      0.295087       30.5901       2.60362             0       15.4704      0.645902             0       26.5311       1.17813             0       5.29639             0             0      0.197992   2.92494e-16      0.139167        102392        103213        240565   5.35904e-16
   0.00750751       288.279       288.352      0.294244       30.6391       2.91545             0       15.4049      0.688226             0       26.5796       1.15818             0       5.97595             0             0      0.195216   3.07271e-16      0.151234        102387        103212        240500   5.62978e-16
   0.00800801       288.287       288.362      0.293361       30.6844       3.22414             0       15.3398      0.730587             0       26.6333       1.13817             0       6.65763             0             0      0.192466   3.21938e-16       0.16319        102382        103211        240437   5.89851e-16
   0.00850851        288.21       288.365      0.289965       30.4989       3.33901             0       15.3005      0.775214             0       27.0032       1.11484             0       7.46948             0             0      0.191293   3.29829e-16      0.168291        102376        103211        240459   6.04308e-16
   0.00900901       288.135       288.369      0.286518       30.3156        3.4482             0       15.2613      0.819999             0       27.3737       1.09451             0        8.2833             0             0      0.190104    3.3788e-16      0.173459        102370        103210        240483   6.19059e-16
   0.00950951       288.087       288.369      0.280275       30.2519       3.24756             0       15.2201      0.873416             0       27.7705       1.23858             0       9.20394             0             0      0.188071   3.54691e-16        0.1823        102364        103208        240617   6.49859e-16
      0.01001        288.04       288.369       0.27402       30.1833       3.04529             0       15.1781      0.927065             0       28.1612       1.38799             0        10.125             0             0      0.186026    3.7212e-16      0.191191        102358        103207        240752   6.81794e-16
    0.0105105       288.023       288.372      0.267236       29.8767       2.76359             0       15.0931      0.992089             0       28.2569       1.79955             0       11.0683             0             0      0.183424   4.19885e-16      0.202505        102352        103206        240960   7.69308e-16
     0.011011       288.005       288.375      0.260495       29.5675       2.48358             0       15.0067       1.05724             0       28.3488       2.21574             0       12.0116             0             0      0.180861   4.68413e-16      0.213649        102345        103205        241170    8.5822e-16
    0.0115115       287.968       288.381      0.255678       29.1467       2.27879             0       14.8587       1.12812             0       28.2715        2.8375             0       12.9526             0             0      0.180038   5.50846e-16      0.217224        102338        103203        241452   1.00925e-15
     0.012012       287.931       288.388      0.250882       28.7448       2.07439             0        14.709       1.19902             0       28.1971       3.46255             0        13.893             0             0      0.179287    6.3417e-16      0.220492        102331        103201        241736   1.16192e-15
    0.0125125       287.895       288.397      0.246969       29.1156        1.8854             0       14.4901       1.27069             0       28.2386       4.22145             0       14.8097             0             0      0.181413   7.53718e-16      0.211248        102323        103200        242095   1.38095e-15
     0.013013       287.859       288.405      0.243092        29.499       1.69713             0       14.2692       1.34226             0       28.2862       4.98209             0       15.7239             0             0      0.183583   8.73075e-16      0.201812        102314        103198        242457   1.59964e-15
    0.0135135       287.827       288.415      0.240512       30.3506       1.53569             0       13.9764       1.41057             0       28.5635       5.80826             0       16.5413             0             0      0.187404   9.85257e-16      0.185201        102303        103196        242954   1.80517e-15
     0.014014       287.795       288.424       0.23799       31.1954       1.37417             0       13.6822        1.4785             0       28.8482       6.63172             0       17.3554             0             0      0.191192   1.09559e-15      0.168729        102292        103195        243456   2.00733e-15
    0.0145145       287.774       288.431      0.237457       31.8043       1.21022             0       13.3366       1.53305             0        29.386        7.3612             0       18.0589             0             0      0.193867   1.14185e-15        0.1571        102277        103193        244146   2.09208e-15
     0.015015       287.752       288.438      0.236961       32.4051       1.04597             0       12.9904       1.58694             0       29.9269        8.0841             0       18.7601             0             0      0.196507   1.18683e-15      0.145621        102263        103192        244842   2.17449e-15
    0.0155155        287.73       288.442      0.237692       32.7429      0.872382             0       12.6221        1.6193             0       30.5668       8.59419             0        19.388             0             0      0.198033   1.19042e-15      0.138986        102246        103190        245735   2.18107e-15
     0.016016       287.708       288.446      0.238417       33.0689      0.697646             0        12.254       1.65102             0       31.2008       9.09803             0       20.0145             0             0      0.199566   1.19359e-15      0.132323        102229        103189        246635   2.18689e-15
    0.0165165       287.677       288.447      0.238973       33.0403       0.48827             0       11.8888       1.66362             0       31.6552         9.413             0       20.5971             0             0      0.201293   1.18412e-15      0.124815        102209        103187        247765   2.16952e-15
     0.017017       287.647       288.448      0.239437       32.9987      0.277424             0       11.5244        1.6759             0       32.0989       9.72356             0       21.1788             0             0      0.203012    1.1746e-15      0.117337        102190        103186        248901   2.15208e-15
    0.0175175       287.632       288.444      0.237295       32.5882     0.0248118             0       11.1847       1.67916             0        32.239       9.90921             0       21.7378             0             0      0.204538    1.1638e-15      0.110706        102169        103185        250186    2.1323e-15
     0.018018       287.617       288.441      0.235083       32.1705     -0.228645             0       10.8462       1.68237             0       32.3649       10.0906             0       22.2973             0             0      0.206059    1.1531e-15      0.104093        102149        103184        251475    2.1127e-15
    0.0185185       287.631       288.434      0.231001       31.5584     -0.504739             0        10.537       1.68397             0       32.1115       10.1568             0       22.8717             0             0      0.207472   1.14511e-15     0.0979481        102128        103183        252899   2.09805e-15
     0.019019       287.645       288.427      0.226993       30.9353     -0.781543             0       10.2287       1.68552             0       31.8412       10.2175             0       23.4491             0             0      0.208879   1.13712e-15     0.0918319        102106        103181        254326   2.08341e-15
    0.0195195        287.67       288.421      0.224895       30.0327      -1.07634             0       9.94199       1.68555             0       31.1425       10.1367             0       24.1019             0             0       0.21012   1.12929e-15     0.0864355        102085        103180        255843   2.06908e-15
      0.02002       287.695       288.416      0.222839       29.1121      -1.37264             0       9.65605        1.6854             0       30.4311       10.0492             0       24.7593             0             0      0.211334   1.12155e-15     0.0811567        102064        103179        257360   2.05489e-15
    0.0205205       287.716       288.419      0.221803       27.7599      -1.70479             0       9.38797       1.68104             0       29.4126       9.79953             0       25.5271             0             0      0.211899   1.11572e-15     0.0786981        102043        103178        258839   2.04421e-15
     0.021021       287.736       288.422      0.220741       26.3957      -2.03791             0       9.12052       1.67646             0       28.3874       9.54186             0       26.2991             0             0      0.212458      1.11e-15     0.0762708        102024        103177        260314   2.03372e-15
    0.0215215       287.742       288.432      0.219075       24.7574      -2.39278             0       8.86764       1.66701             0       27.2126       9.10158             0       27.1649             0             0      0.212851   1.10652e-15     0.0745599        102006        103176        261682   2.02736e-15
     0.022022       287.747       288.442      0.217471       23.1184      -2.74723             0       8.61507       1.65729             0       26.0387        8.6528             0       28.0327             0             0      0.213252    1.1031e-15      0.072819        101990        103175        263040   2.02108e-15
    0.0225225       287.738       288.455      0.217203       21.4621      -3.09249             0       8.36918       1.64181             0       24.8877       8.01908             0       28.9422             0             0      0.213802   1.10066e-15     0.0704252        101976        103174        264153   2.01661e-15
     0.023023       287.729       288.468      0.216999       19.8043      -3.43691             0       8.12343       1.62589             0       23.7442       7.37804             0       29.8512             0             0      0.214347   1.09826e-15     0.0680556        101963        103173        265252   2.01222e-15
    0.0235235       287.722       288.479      0.218125       18.1153      -3.76384             0       7.88037       1.60098             0       22.7588       6.58509             0       30.7515             0             0      0.214776   1.09689e-15     0.0661892        101953        103172        266055   2.00971e-15
     0.024024       287.715        288.49      0.219339       16.4217      -4.08962             0       7.63786       1.57543             0       21.7835       5.78714             0       31.6502             0             0      0.215193   1.09559e-15     0.0643782        101943        103172        266841   2.00732e-15
    0.0245245       287.713       288.501      0.222307       14.6368      -4.39259             0        7.4062       1.53749             0       21.0077       4.89004             0       32.5171             0             0      0.215357   1.09562e-15     0.0636655        101938        103171        267293   2.00739e-15
     0.025025       287.712       288.511      0.225286        12.852      -4.69182             0       7.17579       1.49895             0       20.2451       3.98966             0       33.3821             0             0       0.21551   1.09571e-15     0.0629991        101932        103171        267725   2.00754e-15
    0.0255255       287.715       288.521      0.228489       11.0682      -4.91999             0       6.96906       1.44887             0       19.7309       3.02691             0       34.2086             0             0      0.215461   1.09678e-15     0.0632117        101931        103170        267775    2.0095e-15
     0.026026       287.719       288.531      0.231524       9.28762       -5.1437             0       6.76386       1.39837             0       19.2333       2.06131             0       35.0326             0             0      0.215398   1.09792e-15      0.063488        101929        103170        267804   2.01159e-15
    0.0265265       287.728       288.541      0.231487        7.5675      -5.28607             0       6.58638       1.34014             0       19.0382       1.04395             0       35.8126             0             0      0.215067   1.10034e-15     0.0649253        101932        103170        267467   2.01602e-15
     0.027027       287.737       288.551      0.231264       5.85364      -5.42481             0       6.41031       1.28164             0       18.8625     0.0237516             0       36.5899             0             0      0.214726    1.1028e-15     0.0664107        101935        103170        267112   2.02054e-15
    0.0275275       287.743       288.559      0.227795       4.24955      -5.49986             0       6.25913       1.21839             0       19.0232      -1.04626             0       37.3196             0             0      0.214191   1.10605e-15     0.0687363        101942        103170        266433    2.0265e-15
     0.028028       287.749       288.566      0.224247       2.65452      -5.57121             0       6.10933       1.15496             0       19.2019      -2.11813             0       38.0452             0             0      0.213651   1.10931e-15      0.071083        101949        103170        265740   2.03247e-15
    0.0285285       287.738        288.57       0.21937       1.21234      -5.57992             0       5.98286        1.0886             0       19.6823      -3.22122             0       38.7013             0             0      0.213029   1.11271e-15      0.073785        101959        103170        264802   2.03869e-15
     0.029029       287.726       288.573      0.214566     -0.220679      -5.58564             0       5.85779        1.0221             0       20.1737      -4.32323             0       39.3496             0             0      0.212382   1.11622e-15     0.0765979        101969        103170        263857   2.04512e-15
    0.0295295       287.701       288.573      0.210963      -1.50482      -5.54271             0       5.75554      0.953324             0       20.8427      -5.40774             0       39.8724             0             0      0.211321   1.12152e-15      0.081212        101981        103170        262786   2.05484e-15
      0.03003       287.677       288.573      0.207435      -2.78022        -5.498             0       5.65436       0.88457             0        21.515      -6.48704             0       40.3818             0             0       0.21025   1.12681e-15     0.0858712        101994        103170        261711   2.06453e-15
    0.0305305        287.66       288.571      0.205088      -3.91863      -5.42531             0       5.56983      0.816135             0       22.2387      -7.48473             0       40.6817             0             0      0.209015   1.13187e-15     0.0912373        102008        103171        260566   2.07379e-15
     0.031031       287.645        288.57      0.202724      -5.05031      -5.35227             0       5.48572      0.748088             0       22.9603      -8.47257             0       40.9627             0             0      0.207803    1.1367e-15     0.0965067        102023        103172        259418   2.08264e-15
    0.0315315       287.643       288.568      0.200105      -6.08027      -5.27402             0       5.40785      0.685915             0       23.6503      -9.31148             0       40.9574             0             0      0.206928   1.13819e-15      0.100312        102038        103173        258222   2.08538e-15
     0.032032       287.641       288.566      0.197439      -7.10235      -5.19449             0       5.33052      0.624384             0       24.3351       -10.138             0       40.9305             0             0      0.206067   1.13948e-15      0.104057        102054        103174        257027   2.08775e-15
    0.0325325       287.647       288.564      0.194089      -8.00927      -5.09626             0       5.26109      0.572222             0       24.9444      -10.7831             0       40.5882             0             0      0.205407   1.13776e-15      0.106927        102071        103175        255843   2.08459e-15
     0.033033       287.654       288.562      0.190684      -8.90213      -4.99433             0        5.1931      0.520703             0       25.5536      -11.4191             0       40.2269             0             0      0.204749   1.13584e-15      0.109786        102087        103176        254661   2.08108e-15
    0.0335335       287.667        288.56      0.186525      -9.59602      -4.83986             0       5.14551      0.478278             0       26.1626      -11.9247             0        39.597             0             0      0.204124   1.13116e-15      0.112503        102105        103177        253514    2.0725e-15
     0.034034       287.681       288.559      0.182362      -10.2761      -4.68323             0        5.1001      0.436282             0       26.7829      -12.4238             0       38.9515             0             0      0.203486   1.12629e-15      0.115277        102122        103178        252373   2.06357e-15
    0.0345345       287.699       288.558      0.178144      -10.7667      -4.49686             0       5.08458      0.400165             0       27.5598      -12.8347             0       38.0922             0             0      0.202669   1.11875e-15      0.118829        102139        103180        251332   2.04976e-15
     0.035035       287.718       288.556      0.173958      -11.2473      -4.31209             0        5.0718      0.364221             0       28.3475      -13.2369             0       37.2191             0             0       0.20184    1.1112e-15      0.122435        102156        103181        250299   2.03593e-15
    0.0355355        287.73       288.555      0.170183      -11.5955      -4.14858             0        5.0954      0.330569             0       29.2774      -13.5242             0       36.1617             0             0      0.200844   1.10347e-15      0.126765        102172        103183        249372   2.02177e-15
     0.036036       287.743       288.554      0.166396      -11.9388      -3.98847             0       5.12149      0.297339             0        30.219      -13.8049             0       35.0933             0             0      0.199833   1.09577e-15      0.131162        102189        103185        248451   2.00765e-15
    0.0365365       287.756       288.553      0.162466      -12.2181      -3.87214             0       5.17978      0.269541             0       31.3117      -14.0014             0       33.8837             0             0      0.198621   1.08835e-15       0.13643        102204        103187        247611   1.99405e-15
     0.037037       287.771       288.553       0.15858      -12.4986      -3.75767             0       5.23959      0.242471             0       32.4303       -14.196             0       32.6652             0             0      0.197378    1.0808e-15      0.141834        102220        103188        246781   1.98023e-15
    0.0375375       287.809       288.553      0.155252      -12.7939      -3.66656             0       5.31847        0.2245             0       33.8732      -14.3678             0       31.3349             0             0      0.195745   1.07165e-15      0.148934        102235        103190        246082   1.96346e-15
     0.038038       287.848       288.552       0.15215      -13.0787      -3.57304             0       5.39856      0.207002             0       35.3335      -14.5383             0       29.9985             0             0      0.194128   1.06273e-15      0.155967        102250        103192        245392   1.94712e-15
    0.0385385       287.902        288.55       0.15178      -13.2364       -3.4502             0       5.49345      0.195258             0        37.006      -14.6916             0       28.5891             0             0      0.192698   1.05656e-15      0.162184        102265        103194        244824   1.93581e-15
     0.039039       287.956       288.547      0.151668      -13.3615      -3.32205             0       5.58974      0.183658             0        38.662      -14.8404             0       27.1777             0             0      0.191316   1.05092e-15      0.168192        102280        103196        244266   1.92548e-15
    0.0395395        288.01        288.54      0.154602      -13.1024      -3.13117             0       5.70262      0.173753             0       40.1223      -14.9365             0       25.7412             0             0      0.190499   1.05151e-15      0.171746        102294        103198        243817   1.92657e-15
      0.04004       288.064       288.533      0.157684      -12.8176      -2.93688             0       5.81586      0.163891             0       41.5577       -15.025             0       24.3039             0             0      0.189723    1.0527e-15      0.175117        102308        103200        243387   1.92875e-15
    0.0405405       288.103       288.524       0.16246      -12.2375      -2.70351             0       5.93329      0.154529             0       42.7055       -15.027             0       22.8563             0             0      0.189428   1.06074e-15      0.176402        102319        103202        243170   1.94347e-15
     0.041041        288.14       288.514      0.167276      -11.6622      -2.47076             0        6.0484      0.145354             0       43.8583      -15.0226             0       21.4078             0             0      0.189185   1.06982e-15      0.177457        102331        103204        242967   1.96011e-15
    0.0415415       288.141       288.502      0.172537      -11.1417      -2.24505             0       6.13744      0.138288             0       45.0651      -14.9466             0       19.9489             0             0      0.189534   1.09065e-15       0.17594        102340        103206        242937   1.99827e-15
     0.042042       288.138        288.49      0.177708        -10.64      -2.02246             0        6.2227      0.131376             0       46.2796      -14.8584             0       18.4875             0             0      0.189904   1.11287e-15      0.174332        102349        103208        242915   2.03899e-15
    0.0425425       288.089       288.479      0.181892      -10.3416       -1.8339             0        6.2667      0.126151             0       47.5768      -14.6369             0       16.9998             0             0      0.190502   1.15028e-15      0.171731        102357        103210        242993   2.10754e-15
     0.043043       288.039       288.468      0.185939      -10.0565      -1.64784             0       6.30754      0.120511             0       48.8264      -14.3871             0       15.5079             0             0      0.191071   1.18861e-15      0.169258        102364        103211        243083   2.17776e-15
    0.0435435       287.974       288.461      0.188538      -9.91265      -1.48834             0       6.31481      0.110449             0       49.5692       -13.837             0         13.97             0             0      0.191323   1.23667e-15      0.168159        102370        103213        243303   2.26581e-15
     0.044044        287.91       288.453      0.191129      -9.77774      -1.32865             0       6.31807     0.0995229             0       50.2414      -13.2543             0       12.4332             0             0      0.191511    1.2854e-15      0.167344        102376        103215        243529   2.35509e-15
    0.0445445       287.864       288.449      0.193643       -9.7351      -1.16703             0       6.27968     0.0796448             0       50.1824      -12.3346             0       10.9075             0             0      0.191022   1.34113e-15      0.169471        102381        103217        243817   2.45721e-15
     0.045045        287.82       288.444      0.196041      -9.69635      -1.00551             0       6.23486     0.0597078             0       50.1019      -11.3905             0       9.39121             0             0       0.19049    1.3965e-15      0.171784        102385        103219        244110   2.55865e-15
    0.0455455       287.793       288.437      0.197277      -9.69699     -0.844929             0       6.12503     0.0391752             0       49.8042      -10.2006             0       7.97001             0             0      0.189524   1.44815e-15      0.175982        102389        103220        244449   2.65329e-15