# vtk DataFile Version 2.0
sampleSurface
ASCII
DATASET POLYDATA
POINTS 16001 float
0 0 0.0005 0 0.001 0.0005 0.001 0 0.0005 -0.001 0
0.0005 0.001 0.001 0.0005 -0.001 0.001 0.0005 0.002 0 0.0005
0 0.002 0.0005 -0.002 0 0.0005 0.002 0.001 0.0005 0.001
0.002 0.0005 -0.002 0.001 0.0005 -0.001 0.002 0.0005 0.002 0.002
0.0005 -0.002 0.002 0.0005 0.003 0 0.0005 0 0.003 0.0005
-0.003 0 0.0005 0.003 0.001 0.0005 0.001 0.003 0.0005 -0.003
0.001 0.0005 -0.001 0.003 0.0005 0.003 0.002 0.0005 0.002 0.003
0.0005 -0.003 0.002 0.0005 -0.002 0.003 0.0005 0.004 0 0.0005
0 0.004 0.0005 -0.004 0 0.0005 0.004 0.001 0.0005 0.001
0.004 0.0005 -0.004 0.001 0.0005 -0.001 0.004 0.0005 0.003 0.003
0.0005 -0.003 0.003 0.0005 0.004 0.002 0.0005 0.002 0.004 0.0005
-0.004 0.002 0.0005 -0.002 0.004 0.0005 0.004 0.003 0.0005 0.003
0.004 0.0005 -0.004 0.003 0.0005 -0.003 0.004 0.0005 0.005 0
0.0005 0 0.005 0.0005 -0.005 0 0.0005 0.005 0.001 0.0005
0.001 0.005 0.0005 -0.005 0.001 0.0005 -0.001 0.005 0.0005 0.005
0.002 0.0005 0.002 0.005 0.0005 -0.005 0.002 0.0005 -0.002 0.005
0.0005 0.004 0.004 0.0005 -0.004 0.004 0.0005 0.005 0.003 0.0005
0.003 0.005 0.0005 -0.005 0.003 0.0005 -0.003 0.005 0.0005 0.006
0 0.0005 0 0.006 0.0005 -0.006 0 0.0005 0.006 0.001
0.0005 0.001 0.006 0.0005 -0.006 0.001 0.0005 -0.001 0.006 0.0005
0.006 0.002 0.0005 0.002 0.006 0.0005 -0.006 0.002 0.0005 -0.002
0.006 0.0005 0.005 0.004 0.0005 0.004 0.005 0.0005 -0.005 0.004
0.0005 -0.004 0.005 0.0005 0.006 0.003 0.0005 0.003 0.006 0.0005
-0.006 0.003 0.0005 -0.003 0.006 0.0005 0.007 0 0.0005 0
0.007 0.0005 -0.007 0 0.0005 0.007 0.001 0.0005 0.005 0.005
0.0005 0.001 0.007 0.0005 -0.007 0.001 0.0005 -0.005 0.005 0.0005
-0.001 0.007 0.0005 0.006 0.004 0.0005 0.004 0.006 0.0005 -0.006
0.004 0.0005 -0.004 0.006 0.0005 0.007 0.002 0.0005 0.002 0.007
0.0005 -0.007 0.002 0.0005 -0.002 0.007 0.0005 0.007 0.003 0.0005
0.003 0.007 0.0005 -0.007 0.003 0.0005 -0.003 0.007 0.0005 0.006
0.005 0.0005 0.005 0.006 0.0005 -0.006 0.005 0.0005 -0.005 0.006
0.0005 0.008 0 0.0005 0 0.008 0.0005 -0.008 0 0.0005
0.008 0.001 0.0005 0.001 0.008 0.0005 -0.008 0.001 0.0005 -0.001
0.008 0.0005 0.007 0.004 0.0005 0.004 0.007 0.0005 -0.007 0.004
0.0005 -0.004 0.007 0.0005 0.008 0.002 0.0005 0.002 0.008 0.0005
-0.008 0.002 0.0005 -0.002 0.008 0.0005 0.006 0.006 0.0005 -0.006
0.006 0.0005 0.008 0.003 0.0005 0.003 0.008 0.0005 -0.008 0.003
0.0005 -0.003 0.008 0.0005 0.007 0.005 0.0005 0.005 0.007 0.0005
-0.007 0.005 0.0005 -0.005 0.007 0.0005 0.008 0.004 0.0005 0.004
0.008 0.0005 -0.008 0.004 0.0005 -0.004 0.008 0.0005 0.009 0
0.0005 0 0.009 0.0005 -0.009 0 0.0005 0.009 0.001 0.0005
0.001 0.009 0.0005 -0.009 0.001 0.0005 -0.001 0.009 0.0005 0.009
0.002 0.0005 0.002 0.009 0.0005 -0.009 0.002 0.0005 -0.002 0.009
0.0005 0.007 0.006 0.0005 0.006 0.007 0.0005 -0.007 0.006 0.0005
-0.006 0.007 0.0005 0.008 0.005 0.0005 0.005 0.008 0.0005 -0.008
0.005 0.0005 -0.005 0.008 0.0005 0.009 0.003 0.0005 0.003 0.009
0.0005 -0.009 0.003 0.0005 -0.003 0.009 0.0005 0.009 0.004 0.0005
0.004 0.009 0.0005 -0.009 0.004 0.0005 -0.004 0.009 0.0005 0.007
0.007 0.0005 -0.007 0.007 0.0005 0.008 0.006 0.0005 0.006 0.008
0.0005 -0.008 0.006 0.0005 -0.006 0.008 0.0005 0.01 0 0.0005
0 0.01 0.0005 -0.01 0 0.0005 0.01 0.001 0.0005 0.001
0.01 0.0005 -0.01 0.001 0.0005 -0.001 0.01 0.0005 0.01 0.002
0.0005 0.002 0.01 0.0005 -0.01 0.002 0.0005 -0.002 0.01 0.0005
0.009 0.005 0.0005 0.005 0.009 0.0005 -0.009 0.005 0.0005 -0.005
0.009 0.0005 0.01 0.003 0.0005 0.003 0.01 0.0005 -0.01 0.003
0.0005 -0.003 0.01 0.0005 0.008 0.007 0.0005 0.007 0.008 0.0005
-0.008 0.007 0.0005 -0.007 0.008 0.0005 0.01 0.004 0.0005 0.004
0.01 0.0005 -0.01 0.004 0.0005 -0.004 0.01 0.0005 0.009 0.006
0.0005 0.006 0.009 0.0005 -0.009 0.006 0.0005 -0.006 0.009 0.0005
0.011 0 0.0005 0 0.011 0.0005 -0.011 0 0.0005 0.011
0.001 0.0005 0.001 0.011 0.0005 -0.011 0.001 0.0005 -0.001 0.011
0.0005 0.011 0.002 0.0005 0.002 0.011 0.0005 -0.011 0.002 0.0005
-0.002 0.011 0.0005 0.01 0.005 0.0005 0.005 0.01 0.0005 -0.01
0.005 0.0005 -0.005 0.01 0.0005 0.008 0.008 0.0005 -0.008 0.008
0.0005 0.011 0.003 0.0005 0.009 0.007 0.0005 0.007 0.009 0.0005
0.003 0.011 0.0005 -0.011 0.003 0.0005 -0.009 0.007 0.0005 -0.007
0.009 0.0005 -0.003 0.011 0.0005 0.01 0.006 0.0005 0.006 0.01
0.0005 -0.01 0.006 0.0005 -0.006 0.01 0.0005 0.011 0.004 0.0005
0.004 0.011 0.0005 -0.011 0.004 0.0005 -0.004 0.011 0.0005 0.012
0 0.0005 0 0.012 0.0005 -0.012 0 0.0005 0.012 0.001
0.0005 0.009 0.008 0.0005 0.008 0.009 0.0005 0.001 0.012 0.0005
-0.012 0.001 0.0005 -0.009 0.008 0.0005 -0.008 0.009 0.0005 -0.001
0.012 0.0005 0.011 0.005 0.0005 0.005 0.011 0.0005 -0.011 0.005
0.0005 -0.005 0.011 0.0005 0.012 0.002 0.0005 0.002 0.012 0.0005
-0.012 0.002 0.0005 -0.002 0.012 0.0005 0.01 0.007 0.0005 0.007
0.01 0.0005 -0.01 0.007 0.0005 -0.007 0.01 0.0005 0.012 0.003
0.0005 0.003 0.012 0.0005 -0.012 0.003 0.0005 -0.003 0.012 0.0005
0.011 0.006 0.0005 0.006 0.011 0.0005 -0.011 0.006 0.0005 -0.006
0.011 0.0005 0.012 0.004 0.0005 0.004 0.012 0.0005 -0.012 0.004
0.0005 -0.004 0.012 0.0005 0.009 0.009 0.0005 -0.009 0.009 0.0005
0.01 0.008 0.0005 0.008 0.01 0.0005 -0.01 0.008 0.0005 -0.008
0.01 0.0005 0.013 0 0.0005 0 0.013 0.0005 -0.013 0
0.0005 0.012 0.005 0.0005 0.005 0.012 0.0005 -0.012 0.005 0.0005
-0.005 0.012 0.0005 0.013 0.001 0.0005 0.011 0.007 0.0005 0.007
0.011 0.0005 0.001 0.013 0.0005 -0.013 0.001 0.0005 -0.011 0.007
0.0005 -0.007 0.011 0.0005 -0.001 0.013 0.0005 0.013 0.002 0.0005
0.002 0.013 0.0005 -0.013 0.002 0.0005 -0.002 0.013 0.0005 0.013
0.003 0.0005 0.003 0.013 0.0005 -0.013 0.003 0.0005 -0.003 0.013
0.0005 0.012 0.006 0.0005 0.006 0.012 0.0005 -0.012 0.006 0.0005
-0.006 0.012 0.0005 0.01 0.009 0.0005 0.009 0.01 0.0005 -0.01
0.009 0.0005 -0.009 0.01 0.0005 0.013 0.004 0.0005 0.011 0.008
0.0005 0.008 0.011 0.0005 0.004 0.013 0.0005 -0.013 0.004 0.0005
-0.011 0.008 0.0005 -0.008 0.011 0.0005 -0.004 0.013 0.0005 0.012
0.007 0.0005 0.007 0.012 0.0005 -0.012 0.007 0.0005 -0.007 0.012
0.0005 0.013 0.005 0.0005 0.005 0.013 0.0005 -0.013 0.005 0.0005
-0.005 0.013 0.0005 0.014 0 0.0005 0 0.014 0.0005 -0.014
0 0.0005 0.014 0.001 0.0005 0.001 0.014 0.0005 -0.014 0.001
0.0005 -0.001 0.014 0.0005 0.014 0.002 0.0005 0.01 0.01 0.0005
0.002 0.014 0.0005 -0.014 0.002 0.0005 -0.01 0.01 0.0005 -0.002
0.014 0.0005 0.011 0.009 0.0005 0.009 0.011 0.0005 -0.011 0.009
0.0005 -0.009 0.011 0.0005 0.013 0.006 0.0005 0.006 0.013 0.0005
-0.013 0.006 0.0005 -0.006 0.013 0.0005 0.014 0.003 0.0005 0.003
0.014 0.0005 -0.014 0.003 0.0005 -0.003 0.014 0.0005 0.012 0.008
0.0005 0.008 0.012 0.0005 -0.012 0.008 0.0005 -0.008 0.012 0.0005
0.014 0.004 0.0005 0.004 0.014 0.0005 -0.014 0.004 0.0005 -0.004
0.014 0.0005 0.013 0.007 0.0005 0.007 0.013 0.0005 -0.013 0.007
0.0005 -0.007 0.013 0.0005 0.011 0.01 0.0005 0.01 0.011 0.0005
-0.011 0.01 0.0005 -0.01 0.011 0.0005 0.014 0.005 0.0005 0.005
0.014 0.0005 -0.014 0.005 0.0005 -0.005 0.014 0.0005 0.015 0
0.0005 0.012 0.009 0.0005 0.009 0.012 0.0005 0 0.015 0.0005
-0.015 0 0.0005 -0.012 0.009 0.0005 -0.009 0.012 0.0005 0.015
0.001 0.0005 0.001 0.015 0.0005 -0.015 0.001 0.0005 -0.001 0.015
0.0005 0.015 0.002 0.0005 0.002 0.015 0.0005 -0.015 0.002 0.0005
-0.002 0.015 0.0005 0.014 0.006 0.0005 0.006 0.014 0.0005 -0.014
0.006 0.0005 -0.006 0.014 0.0005 0.013 0.008 0.0005 0.008 0.013
0.0005 -0.013 0.008 0.0005 -0.008 0.013 0.0005 0.015 0.003 0.0005
0.003 0.015 0.0005 -0.015 0.003 0.0005 -0.003 0.015 0.0005 0.015
0.004 0.0005 0.004 0.015 0.0005 -0.015 0.004 0.0005 -0.004 0.015
0.0005 0.011 0.011 0.0005 -0.011 0.011 0.0005 0.012 0.01 0.0005
0.01 0.012 0.0005 -0.012 0.01 0.0005 -0.01 0.012 0.0005 0.014
0.007 0.0005 0.007 0.014 0.0005 -0.014 0.007 0.0005 -0.007 0.014
0.0005 0.015 0.005 0.0005 0.013 0.009 0.0005 0.009 0.013 0.0005
0.005 0.015 0.0005 -0.015 0.005 0.0005 -0.013 0.009 0.0005 -0.009
0.013 0.0005 -0.005 0.015 0.0005 0.016 0 0.0005 0 0.016
0.0005 -0.016 0 0.0005 0.016 0.001 0.0005 0.001 0.016 0.0005
-0.016 0.001 0.0005 -0.001 0.016 0.0005 0.016 0.002 0.0005 0.002
0.016 0.0005 -0.016 0.002 0.0005 -0.002 0.016 0.0005 0.014 0.008
0.0005 0.008 0.014 0.0005 -0.014 0.008 0.0005 -0.008 0.014 0.0005
0.015 0.006 0.0005 0.006 0.015 0.0005 -0.015 0.006 0.0005 -0.006
0.015 0.0005 0.016 0.003 0.0005 0.012 0.011 0.0005 0.011 0.012
0.0005 0.003 0.016 0.0005 -0.016 0.003 0.0005 -0.012 0.011 0.0005
-0.011 0.012 0.0005 -0.003 0.016 0.0005 0.013 0.01 0.0005 0.01
0.013 0.0005 -0.013 0.01 0.0005 -0.01 0.013 0.0005 0.016 0.004
0.0005 0.004 0.016 0.0005 -0.016 0.004 0.0005 -0.004 0.016 0.0005
0.015 0.007 0.0005 0.007 0.015 0.0005 -0.015 0.007 0.0005 -0.007
0.015 0.0005 0.014 0.009 0.0005 0.009 0.014 0.0005 -0.014 0.009
0.0005 -0.009 0.014 0.0005 0.016 0.005 0.0005 0.005 0.016 0.0005
-0.016 0.005 0.0005 -0.005 0.016 0.0005 0.012 0.012 0.0005 -0.012
0.012 0.0005 0.015 0.008 0.0005 0.008 0.015 0.0005 -0.015 0.008
0.0005 -0.008 0.015 0.0005 0.017 0 0.0005 0 0.017 0.0005
-0.017 0 0.0005 0.013 0.011 0.0005 0.011 0.013 0.0005 -0.013
0.011 0.0005 -0.011 0.013 0.0005 0.017 0.001 0.0005 0.001 0.017
0.0005 -0.017 0.001 0.0005 -0.001 0.017 0.0005 0.016 0.006 0.0005
0.006 0.016 0.0005 -0.016 0.006 0.0005 -0.006 0.016 0.0005 0.017
0.002 0.0005 0.002 0.017 0.0005 -0.017 0.002 0.0005 -0.002 0.017
0.0005 0.014 0.01 0.0005 0.01 0.014 0.0005 -0.014 0.01 0.0005
-0.01 0.014 0.0005 0.017 0.003 0.0005 0.003 0.017 0.0005 -0.017
0.003 0.0005 -0.003 0.017 0.0005 0.016 0.007 0.0005 0.007 0.016
0.0005 -0.016 0.007 0.0005 -0.007 0.016 0.0005 0.017 0.004 0.0005
0.004 0.017 0.0005 -0.017 0.004 0.0005 -0.004 0.017 0.0005 0.015
0.009 0.0005 0.009 0.015 0.0005 -0.015 0.009 0.0005 -0.009 0.015
0.0005 0.013 0.012 0.0005 0.012 0.013 0.0005 -0.012 0.013 0.0005
-0.013 0.012 0.0005 0.017 0.005 0.0005 0.005 0.017 0.0005 -0.017
0.005 0.0005 -0.005 0.017 0.0005 0.014 0.011 0.0005 0.011 0.014
0.0005 -0.014 0.011 0.0005 -0.011 0.014 0.0005 0.016 0.008 0.0005
0.008 0.016 0.0005 -0.016 0.008 0.0005 -0.008 0.016 0.0005 0.018
[...]
POINT_DATA 16001
FIELD attributes 17
p 1 16001 float
101548 101549 101588 101507 101590 101508 101629 101555 101466 101631 101598
101466 101511 101639 101467 101668 101563 101424 101671 101607 101423
101517 101680 101649 101423 101470 101707 101574 101379 101709 101619
101379 101525 101690 101423 101719 101663 101379 101476 101730 101706
101379 101427 101743 101583 101333 101745 101629 101334 101535 101756
101674 101335 101484 101747 101381 101769 101720 101336 101434 101775
101595 101288 101778 101643 101289 101545 101789 101690 101291 101494
101787 101762 101337 101385 101803 101742 101293 101442 101802 101603
101246 101805 101805 101653 101247 101339 101553 101822 101788 101293
101391 101818 101705 101248 101502 101833 101762 101250 101448 101839
101834 101293 101341 101826 101620 101206 101830 101671 101207 101563
101851 101811 101250 101396 101842 101725 101207 101511 101866 101294
101857 101795 101208 101454 101868 101863 101249 101344 101874 101847
101207 101400 101848 101635 101169 101851 101693 101169 101571 101863
101750 101168 101517 101890 101886 101248 101295 101887 101899 101206
101346 101876 101823 101168 101458 101890 101874 101167 101403 101900
101249 101904 101915 101206 101297 101869 101667 101132 101872 101697
101132 101583 101882 101724 101131 101522 101900 101919 101167 101348
101893 101824 101131 101461 101911 101924 101206 101250 101907 101896
101130 101405 101910 101937 101167 101298 101888 101685 101096 101890
101695 101096 101597 101898 101688 101096 101530 101916 101957 101131
101348 101930 101207 101909 101912 101945 101835 101096 101167 101250
101464 101924 101984 101131 101298 101921 101963 101097 101408 101906
102026 101062 101907 101913 101942 101835 101062 101168 101208 102380
101931 102031 101097 101349 101914 101809 101063 102564 101921 101982
101131 101250 101923 101935 101065 102727 101937 102068 101098 101298
101935 102065 101066 102871 101911 101168 101908 101977 101132 101208
101924 102228 101032 101946 102101 101066 103011 101925 101929 102062
102061 101032 101098 101250 102411 101930 102010 101034 102578 101937
102055 101035 102733 101953 102123 101066 103136 101893 101937 101132
101168 101947 101911 102049 102136 101036 101098 101207 102874 101949
102114 101066 103258 101959 102178 101036 103012 101943 102357 101005
101944 102226 101006 102478 101947 101905 102156 101007 101132 102615
101896 101989 101099 101167 101971 102176 101036 103137 101951 102146
101009 102749 101938 102101 101067 103370 101960 102172 101009 102883
101977 102161 101037 103258 101907 101933 101100 101132 101971 102207
101009 103016 101965 101930 102040 102416 100983 101069 103480 101965
102312 100983 102520 101967 102251 100984 102637 101983 102202 101009
103138 101978 102140 101038 103369 101970 102234 100985 102763 101976
102231 100985 102891 101938 101100 101941 101978 101071 103580 101993
102188 101010 103258 101984 101983 102081 102229 100985 101041 103480
103020 101986 102456 100964 101986 102370 100964 102548 101987 102320
100964 102651 102002 102163 101013 103368 101995 102221 100986 103139
101988 101966 101988 102294 100965 101071 103674 102772 101998 102039
101044 103580 101993 102285 100965 102897 102002 102204 100987 103256
102013 102122 101016 103478 101999 102273 100965 103023 102011 103758
102012 102188 100990 103366 102009 102421 100948 102023 102044 101045
103674 102008 102372 100948 102568 102006 102255 100966 103139 102007
102355 100948 102663 102034 102098 101019 103580 102007 102338 100948
102779 102010 102235 100969 103255 102010 102322 100948 102903 102034
102167 100994 103477 102055 102059 103758 103838 102013 102303 100949
103026 102063 102099 101020 103675 102023 102218 100972 103364 102029
102389 100936 102028 102058 102150 102390 100936 100997 102501 103579
102017 102277 100951 103140 102025 102403 100935 102548 102022 102398
100935 102587 102043 102200 100975 103475 102086 103838 102017 102251
100954 103255 102021 102372 100935 102624 102087 102100 103913 103760
102088 102146 100997 103675 102020 102333 100937 102658 102023 102234
100956 103364 102061 102182 100977 103579 102021 102292 100939 102689
102044 102455 100926 102042 102435 100926 102504 102038 102104 102108
102431 100925 102548 103913 103840 102108 102139 103984 103762 102034
102042 102221 102417 100925 100959 102588 103475 102027 102258 100942
102719 102093 102173 100977 103676 102032 102388 100926 102624 102030
102347 100928 102658 102033 102241 100944 102747 102061 102209 100960
103579 102113 103914 102111 102134 103984 103842 102029 102306 100930
102689 102113 102169 104049 103763 102050 102475 100920 102049 102445
100919 102519 102047 102429 100919 102556 102048 102232 100946 102775
102045 102408 100919 102593 102028 102082 102204 102273 100933 100960
102719 103676 102045 102384 100920 102627 102114 102131 103985 103916
102058 102231 100947 102802 102034 102119 102161 102257 100935 102747
104049 103843 102044 102354 100922 102659 102099 102201 104105 103763
102042 102322 100924 102690 102051 102494 100916 102042 102248 100936
102775 102051 102465 100916 102530 102069 102233 100946 102827 102051
102443 100916 102563 102034 102293 100926 102720 102124 103987 102051
102418 100916 102597 102123 102154 104050 103917 102051 102391 100917
102629 102110 102192 104106 103843 102044 102244 100936 102802 102031
102277 100928 102748 102048 102361 100919 102660 102087 102231 102851
104153 102045 102331 100920 102690 102034 102121 102132 102267 100929
102776 104052 103988 102055 102247 100935 102827 102050 102505 100915
102051 102475 100915 102540 102117 102176 104108 103917 102053 102450
100916 102571 102040 102304 100922 102720 102055 102097 102217 102423
100916 102873 102602 104154 102056 102397 100917 102631 102033 102259
100929 102802 102035 102076 102244 102290 100923 102851 102749 104194
102055 102367 100919 102661 102123 104053 102121 102145 104110 103988
102055 102111 102198 102339 100920 102893 102690 104157 102043 102255
100928 102827 102031 102281 100923 102777 102052 102514 100917 102053
102095 102234 102483 100917 102873 102549 104195 102054 102051 102315
102459 100917 100921 102720 102578 102056 102432 100918 102606 102031
102274 100923 102803 102068 102251 102850 104227 102057 102403 100919
102633 102126 102125 104113 104054 102044 102299 100921 102749 102124
102165 102911 104161 102057 102372 100921 102661 102111 102218 102893
104199 102044 102269 100922 102827 102057 102041 102290 102343 100921
100920 102778 102690 102093 102249 102871 104229 102058 102520 100921
102058 102490 100922 102553 102047 102318 100921 102720 102123 104113
102057 102130 102136 102468 100922 102927 102581 104164 102044 102283
100920 102803 102058 102072 102265 102441 100923 102849 102607 104255
102129 102190 102911 104204 102060 102413 100924 102633 102045 102302
100920 102750 102112 102239 102891 104233 102063 102380 100925 102661
102059 102280 100918 102827 102056 102293 100919 102778 102095 102262
102870 104257 102064 102348 100925 102690 102131 102130 102940 104165
102142 102167 102927 104208 102067 102132 102218 102320 100925 102909
102720 104237 102065 102496 100926 102064 102480 100926 102561 102079
102277 102848 104276 102063 102289 100918 102804 102064 102467 100927
102586 102064 102445 100928 102610 102111 102255 102889 104259 102071
102300 100923 102750 102067 102418 100929 102635 102141 102951 102073
102148 102159 102288 100916 102940 102827 104209 102071 102386 100930
102661 102097 102276 102868 104277 102150 102203 102925 104241 102078
102289 100922 102778 102076 102353 100930 102690 102130 102242 102907
104262 102083 102288 102847 104292 102089 102323 100929 102720 102070
102456 102083 102286 100920 102804 102069 102457 102069 102108 102272
102450 102886 104277 102070 102155 102164 102434 102951 102960 102161
102193 102940 104242 102098 102300 100927 102750 102072 102413 102085
102148 102232 102289 100918 102924 102827 104265 102095 102290 102866
104291 102075 102386 102098 102288 100926 102778 102120 102265 102904
104278 102079 102358 102086 102295 102846 104298 102169 102961 102165
102190 102967 102951 102086 102101 102290 102331 102884 104289 102098
102287 100925 102804 102073 102448 102073 102446 102159 102221 102939
104266 102074 102438 102076 102426 102096 102138 102257 102311 102922
104278 102080 102409 102088 102302 102865 104297 102095 102294 100922
102826 102084 102109 102288 102387 102902 104286 102106 102300 102169
102186 102969 102961 102092 102364 102160 102213 102974 102952 102086
102304 102846 104296 102087 102309 102883 104292 102150 102247 102938
104278 102110 102300 102100 102343 102076 102432 102129 102282 102920
104284 102077 102429 102079 102424 102107 102327 102082 102414 102080
102316 102864 104294 102103 102308 102084 102178 102399 102970 102088
102313 102901 104287 102160 102202 102976 102962 102151 102236 102980
102952 102086 102381 102115 102320 102140 102272 102937 104282 102092
102320 102093 102362 102075 102328 102882 104289 102116 102321 102102
102310 102919 104283 102100 102346 102081 102167 102189 102422 102977
102971 102082 102419 102082 102150 102221 102333 102982 102963 102084
102414 102105 102337 102109 102329 102086 102072 102335 102405 102900
104283 102138 102258 102985 102952 102086 102392 102111 102115 102299
102334 102936 104280 102086 102376 102075 102345 102096 102340 102090
102361 102076 102332 102918 104278 102175 102978 102154 102204 102983
102973 102114 102338 102138 102241 102987 102965 102094 102349 102083
102350 102088 102120 102281 102410 102988 102952 102072 102350 102088
102408 102089 102403 102095 102108 102345 102342 102088 102394 102085
102318 102935 104276 102086 102381 102100 102341 102082 102074 102357
102367 102158 102185 102984 102981 102098 102354 102140 102220 102988
102975 102073 102343 102081 102355 102122 102260 102990 102966 102105
102345 102081 102346 102099 102298 102989 102951 102085 102360 102070
102357 102094 102402 102094 102400 102105 102351 102079 102342 102094
102079 102327 102395 102165 102986 102092 102141 102197 102385 102989
102983 102123 102235 102991 102976 102090 102373 102078 102361 102082
102343 102101 102076 102349 102356 102085 102361 102106 102274 102991
102965 102079 102350 102091 102089 102305 102347 102078 102358 102071
102096 102358 102343 102144 102173 102991 102988 102124 102208 102991
102984 102084 102332 102099 102351 102100 102392 102100 102064 102340
102390 102107 102247 102991 102976 102098 102384 102097 102374 102094
102281 102093 102357 102095 102362 102083 102347 102065 102341 102104
102353 102091 102351 102088 102310 102148 102992 102083 102124 102180
102341 102993 102990 102079 102344 102093 102106 102217 102352 102991
102984 102109 102353 102070 102335 102086 102330 102093 102253 102096
102347 102058 102333 102102 102383 102086 102284 102102 102381 102100
102375 102112 102350 102093 102341 102098 102364 102059 102110 102347
102335 102095 102124 102151 102353 102994 102994 102085 102308 102104
102185 102992 102989 102091 102342 102089 102222 102074 102338 102114
102344 102082 102333 102081 102255 102125 102345 102092 102324 102071
102327 102094 102340 102078 102282 102122 102995 102062 102326 102099
102152 102994 102992 102110 102333 102101 102373 102101 102134 102341
102371 102083 102187 102100 102364 102099 102086 102303 102354 102114
102339 102062 102073 102222 102328 102096 102342 102092 102332 102069
102253 102139 102335 102101 102317 102077 102332 102085 102323 102134
102337 102091 102117 102995 102994 102073 102278 102074 102150 102077
102318 102096 102333 102064 102186 102133 102324 102149 102333 102072
102317 102088 102297 102098 102058 102220 102364 102098 102362 102099
102356 102116 102333 102099 102346 102074 102320 102098 102060 102250
102334 102155 102327 102118 102309 102095 102081 102324 102993 102061
102111 102087 102324 102135 102051 102147 102330 102071 102273 102092
102315 102046 102184 102090 102311 102104 102327 102149 102316 102047
102217 102098 102291 102151 102326 102089 102311 102095 102356 102095
102354 102097 102054 102245 102348 102119 102327 102046 102071 102099
102339 102032 102105 102091 102314 102099 102328 102130 102028 102142
102302 102161 102320 102099 102318 102075 102268 102031 102179 102100
102135 102325 102319 102100 102310 102038 102212 102102 102305 102157
102309 102112 102322 102106 102285 102030 102148 102321 102011 102060
102103 102305 102005 102098 102052 102239 102093 102352 102123 102323
102094 102350 102009 102137 102095 102344 102106 102310 102098 102335
102138 102296 102158 102314 102020 102174 102100 102325 102080 102261
102104 102315 102135 102321 102113 102315 102032 102206 102107 102308
101989 102014 101977 102050 102157 102304 102112 102279 102120 102320
101980 102091 102109 102303 102146 102318 102053 102233 101993 102131
102112 102304 102127 102321 102094 102351 102094 102010 102167 102349
102142 102291 102095 102343 102117 102309 102153 102083 102255 102311
102098 102335 101967 102102 101948 101999 102325 102134 102320 102029
102199 101946 102040 102123 102315 102107 102316 101958 102083 102111
102117 102273 102309 102150 102300 102054 102226 102125 102320 101979
102124 102141 102316 102116 102305 102004 102160 102123 102306 102128
102322 101919 101946 102133 102287 102088 101910 101986 102249 102149
102309 102094 102353 102095 102351 102129 102310 102096 101918 102031
102345 102098 102337 102027 102192 102101 101940 102076 102328 102132
102322 102131 102317 102105 102320 102114 102269 102147 102299 101969
102118 102058 102220 102110 102313 102138 102318 102129 102323 101892
102118 101873 101928 102310 101999 102155 101874 101974 102135 102285
102126 102311 102092 101895 102024 102245 102129 102326 102145 102311
102028 102187 101927 102071 102097 102358 102098 102356 102132 102315
102099 102350 102101 102342 102131 102325 102104 102333 101964 102113
102121 102267 102133 102322 102149 102300 102108 102061 101839 101869
102218 102325 101830 101915 102113 102320 101846 101967 102135 101999
102151 102322 102130 102327 102120 101879 102020 102317 102099 102244
102142 102286 102126 102318 102129 102331 101921 102068 102031 102186
102140 102314 102129 102322 102100 102365 102101 101810 102362 101789
101853 101965 102112 102102 102357 101795 101907 102105 102131 102331
102349 102128 102268 102066 102218 102108 102341 102142 101826 101965
102303 102130 102328 102111 102333 102004 102151 101872 102020 102134
102327 102117 102328 102128 102333 102104 102246 102122 102325 101923
102069 102133 102288 102039 102188 101754 101790 102129 102336 101747
101845 102124 102326 102136 102318 101770 101907 101972 102114 102124
102329 102101 102372 102101 101817 101969 102370 102117 102271 102102
102364 102078 102221 102130 102336 102103 102357 102136 102307 102016
102155 102104 102349 102123 101875 102024 102334 102107 102342 102132
102332 101729 102112 102337 101934 102074 101705 101781 102124 102339
102104 102250 101717 101847 102056 102193 102128 102292 102112 102334
101760 101915 101986 102120 102134 102323 102125 102342 102111 102334
101821 101977 102092 102226 102115 102274 102111 102337 102103 102380
102103 102378 102127 102341 101889 102033 102032 102162 102104 102372
102134 102310 102105 102365 101676 101718 102112 102340 102105 102358
101670 101784 101952 102083 101703 101858 102106 102351 102130 102336
102107 102253 102105 102346 102074 101764 101928 102199 102115 102344
102128 102294 102101 102005 102130 102343 101838 101990 102133 102326
102119 102345 102096 102342 102103 101910 102045 102230 101663 102120
101636 101724 102276 102051 102171 102096 102343 101653 101801 102123
102345 102104 102387 102104 102385 102135 102312 102105 102380 101707
101878 102106 101974 102096 102373 102101 102346 102106 102366 101783
101947 102127 102339 102103 102360 102116 102255 102093 102206 102106
102347 102134 102295 102099 101863 102007 102354 102027 102141 102095
101622 101671 102351 102132 101616 101745 102328 102112 102348 101937
102060 101656 101826 102089 102349 102119 102234 102077 102180 102131
102275 101728 101902 102088 102349 102118 102346 102137 101999 102110
102312 102103 101813 101967 102394 102102 102392 102102 102387 102100
102381 102093 102350 102098 102374 102120 102212 102136 102255 102124
101895 102025 102340 101631 102095 102054 102154 102368 101601 101696
102140 102294 101619 101777 102100 102350 102093 102363 101679 101858
101966 102078 102089 102131 102328 102359 102107 101763 101929 102349
102147 102236 102107 102190 102144 102273 102084 102356 102028 102126
101850 101990 102115 102138 102312 102346 102085 102355 101610 101659
102101 102398 102101 101603 101734 102397 102100 101929 102046 102394
102153 102217 102099 102091 102354 102389 102153 101644 101816 102254
102086 102167 102097 102122 102339 102382 101718 101891 102144 102292
102096 102376 102098 102352 101998 102098 102093 102370 101805 101956
102129 102328 102169 102237 102089 102366 102145 102200 102106 102350
102152 102272 101890 102014 102061 102144 101640 102086 102362 101611
101703 101628 101780 102136 102311 102114 102345 101685 101856 102087
102360 101966 102068 102180 102222 102100 102402 102165 101765 101924
102253 102099 102124 102182 102401 102099 102399 102093 102357 102098
102395 102122 102337 102097 102143 102291 102390 102033 102119 101851
101984 102094 102384 102100 102354 102093 102377 101641 101686 102179
102210 102183 102239 101634 101754 102129 101931 102040 102326 101669
101827 102099 102163 102090 102372 102107 102152 102273 102349 101736
101895 102089 102368 102002 102094 102136 102310 102114 102343 101816
101956 102091 102194 102229 102364 102164 102197 102167 102256 102099
102404 102098 101896 102013 102404 102072 102142 102098 102404 102096
102359 102122 102335 101687 102098 102401 102143 101662 101741 102293
102097 101674 101806 102396 102096 101971 102068 102390 101722 101871
102102 102355 102199 102221 102183 102244 102095 102141 102183 102383
102130 102325 101792 101931 102151 102276 102092 102108 102349 102377
102042 102121 101867 101988 102092 102372 102137 102311 102197 102238
102115 102192 102214 102342 101705 101742 101940 102043 102095 101699
101796 102367 102162 102262 102115 102167 101726 101854 102100 102406
102100 102406 102100 102362 102122 102145 101780 101911 102295 102333
102100 102407 102100 102012 102099 102405 102099 102400 102206 102234
101846 101966 102176 102204 102104 102177 102253 102356 102097 102394
102130 102323 102096 102387 102153 102281 102086 102149 101915 102020
102109 102349 102093 101757 102381 101738 101797 101746 101846 102205
102231 102094 102139 101983 102076 102312 102375 102192 102249 101782
101897 102115 102341 102158 102192 102162 102270 101836 101948 102098
102369 102058 102130 102147 102300 102121 101896 102000 102332 102102
102407 102103 102363 102102 102407 102102 102408 102202 102249 102101
102407 102196 102225 102172 102264 102100 102402 101784 101810 102106
101959 102054 102356 102133 102176 101780 101848 102100 102395 102129
102323 102154 101799 101891 102289 102100 102389 101837 101936 102109
102348 102030 102109 102098 102382 102205 102248 102183 102262 102138
102313 102183 101886 101984 102215 102098 102376 102114 102161 102280
102340 102105 102159 101941 102034 102100 102370 101832 102147 102305
101819 101858 102119 102332 102193 101826 101892 102263 102103 102364
102104 102201 102244 102103 102102 102006 102088 102169 102276 102100
101849 101930 102167 102202 102100 102105 102356 101886 101973 102100
102126 102323 102154 102296 102079 102140 102099 101931 102019 102108
102348 102199 102264 102100 102178 102192 102236 102275 102135 102315
101988 102069 102101 102161 102147 101861 101876 102186 102290 102112
101858 101901 102340 101870 101931 102101 101895 101967 102056 102121
102144 102308 102201 102260 102187 102276 102117 102332 102102 102184
102223 102105 102168 102287 102104 101929 102008 102104 102102 102101
102127 102168 102104 101976 102054 102123 102152 102301 102323 102098
101901 102194 102275 102096 101894 101916 102202 102252 102106 102176