#           y             T         TMean   TPrime2Mean           U_x           U_y           U_z       UMean_x       UMean_y       UMean_z UPrime2Mea... UPrime2Mea... UPrime2Mea... UPrime2Mea... UPrime2Mea... UPrime2Mea...            O2           H2O          C3H8             p         pMean   pPrime2Mean           CO2
         0.04       305.766        289.64       39.8054       2.04984       17.7084             0      -4.34864      -4.80461             0       20.9199        14.203             0       92.8222             0             0      0.209681   0.000147036     0.0868363        113131        103713   4.94015e+06   0.000269397
     0.039975       305.807       289.639       39.7644       2.12099       17.7053             0      -4.33954       -4.8098             0       20.9749       14.2531             0        93.068             0             0      0.209676   0.000147177     0.0868529        113133        103713   4.94009e+06   0.000269656
    0.0399499       305.848       289.639       39.7233       2.19214       17.7022             0      -4.33044      -4.81499             0         21.03       14.3032             0       93.3139             0             0      0.209672   0.000147318     0.0868695        113135        103712   4.94002e+06   0.000269914
    0.0399249       305.889       289.638       39.6823       2.26329       17.6991             0      -4.32134      -4.82018             0        21.085       14.3534             0       93.5597             0             0      0.209668   0.000147459     0.0868862        113136        103712   4.93995e+06   0.000270172
    0.0398999        305.93       289.637       39.6412       2.33444        17.696             0      -4.31224      -4.82537             0         21.14       14.4035             0       93.8056             0             0      0.209664     0.0001476     0.0869028        113138        103712   4.93989e+06   0.000270431
    0.0398749       305.971       289.637       39.6001       2.40559       17.6928             0      -4.30315      -4.83056             0       21.1951       14.4536             0       94.0514             0             0       0.20966   0.000147741     0.0869194        113140        103712   4.93982e+06   0.000270689
    0.0398498       306.012       289.636       39.5591       2.47674       17.6897             0      -4.29405      -4.83575             0       21.2501       14.5037             0       94.2973             0             0      0.209656   0.000147882      0.086936        113142        103712   4.93976e+06   0.000270947
    0.0398248       306.053       289.636        39.518        2.5479       17.6866             0      -4.28495      -4.84094             0       21.3051       14.5538             0       94.5431             0             0      0.209651   0.000148023     0.0869527        113144        103711   4.93969e+06   0.000271206
    0.0397998       306.094       289.635       39.4769       2.61905       17.6835             0      -4.27585      -4.84613             0       21.3601       14.6039             0       94.7889             0             0      0.209647   0.000148164     0.0869693        113145        103711   4.93962e+06   0.000271464
    0.0397748       306.135       289.635       39.4359        2.6902       17.6803             0      -4.26675      -4.85132             0       21.4152        14.654             0       95.0348             0             0      0.209643   0.000148305     0.0869859        113147        103711   4.93956e+06   0.000271722
    0.0397497       306.176       289.634       39.3948       2.76135       17.6772             0      -4.25766      -4.85651             0       21.4702       14.7041             0       95.2806             0             0      0.209639   0.000148446     0.0870025        113149        103711   4.93949e+06   0.000271981
    0.0397247       306.217       289.633       39.3538        2.8325       17.6741             0      -4.24856       -4.8617             0       21.5252       14.7543             0       95.5265             0             0      0.209635   0.000148587     0.0870192        113151        103711   4.93943e+06   0.000272239
    0.0396997       306.258       289.633       39.3127       2.90365        17.671             0      -4.23946      -4.86689             0       21.5803       14.8044             0       95.7723             0             0      0.209631   0.000148728     0.0870358        113152        103710   4.93936e+06   0.000272497
    0.0396747       306.299       289.632       39.2716        2.9748       17.6679             0      -4.23036      -4.87208             0       21.6353       14.8545             0       96.0182             0             0      0.209626   0.000148869     0.0870524        113154        103710    4.9393e+06   0.000272756
    0.0396496        306.34       289.632       39.2306       3.04595       17.6647             0      -4.22127      -4.87727             0       21.6903       14.9046             0        96.264             0             0      0.209622    0.00014901      0.087069        113156        103710   4.93923e+06   0.000273014
    0.0396246       306.381       289.631       39.1895        3.1171       17.6616             0      -4.21217      -4.88246             0       21.7454       14.9547             0       96.5098             0             0      0.209618   0.000149151     0.0870857        113158        103710   4.93916e+06   0.000273272
    0.0395996       306.422        289.63       39.1484       3.18825       17.6585             0      -4.20307      -4.88765             0       21.8004       15.0048             0       96.7557             0             0      0.209614   0.000149292     0.0871023        113160        103710    4.9391e+06    0.00027353
    0.0395746       306.463        289.63       39.1074        3.2594       17.6554             0      -4.19397      -4.89284             0       21.8554       15.0549             0       97.0015             0             0       0.20961   0.000149433     0.0871189        113161        103709   4.93903e+06   0.000273789
    0.0395495       306.504       289.629       39.0663       3.33055       17.6523             0      -4.18487      -4.89803             0       21.9105       15.1051             0       97.2474             0             0      0.209606   0.000149574     0.0871355        113163        103709   4.93897e+06   0.000274047
    0.0395245       306.545       289.629       39.0253        3.4017       17.6491             0      -4.17578      -4.90322             0       21.9655       15.1552             0       97.4932             0             0      0.209602   0.000149715     0.0871522        113165        103709    4.9389e+06   0.000274305
    0.0394995       306.586       289.628       38.9842       3.47285        17.646             0      -4.16668      -4.90841             0       22.0205       15.2053             0       97.7391             0             0      0.209597   0.000149856     0.0871688        113167        103709   4.93884e+06   0.000274564
    0.0394745       306.627       289.627       38.9431         3.544       17.6429             0      -4.15758       -4.9136             0       22.0755       15.2554             0       97.9849             0             0      0.209593   0.000149997     0.0871854        113168        103709   4.93877e+06   0.000274822
    0.0394494       306.668       289.627       38.9021       3.61515       17.6398             0      -4.14848      -4.91879             0       22.1306       15.3055             0       98.2307             0             0      0.209589   0.000150138      0.087202        113170        103708    4.9387e+06    0.00027508
    0.0394244       306.709       289.626        38.861        3.6863       17.6367             0      -4.13938      -4.92398             0       22.1856       15.3556             0       98.4766             0             0      0.209585   0.000150279     0.0872187        113172        103708   4.93864e+06   0.000275339
    0.0393994        306.75       289.626       38.8199       3.75745       17.6335             0      -4.13029      -4.92917             0       22.2406       15.4057             0       98.7224             0             0      0.209581    0.00015042     0.0872353        113174        103708   4.93857e+06   0.000275597
    0.0393744       306.791       289.625       38.7789        3.8286       17.6304             0      -4.12119      -4.93436             0       22.2957       15.4559             0       98.9683             0             0      0.209577   0.000150561     0.0872519        113176        103708   4.93851e+06   0.000275855
    0.0393493       306.832       289.625       38.7378       3.89976       17.6273             0      -4.11209      -4.93955             0       22.3507        15.506             0       99.2141             0             0      0.209572   0.000150702     0.0872685        113177        103708   4.93844e+06   0.000276114
    0.0393243       306.873       289.624       38.6968       3.97091       17.6242             0      -4.10299      -4.94474             0       22.4057       15.5561             0         99.46             0             0      0.209568   0.000150843     0.0872852        113179        103708   4.93838e+06   0.000276372
    0.0392993       306.914       289.623       38.6557       4.04206       17.6211             0      -4.09389      -4.94993             0       22.4608       15.6062             0       99.7058             0             0      0.209564   0.000150984     0.0873018        113181        103707   4.93831e+06    0.00027663
    0.0392743       306.955       289.623       38.6146       4.11321       17.6179             0       -4.0848      -4.95513             0       22.5158       15.6563             0       99.9516             0             0       0.20956   0.000151125     0.0873184        113183        103707   4.93824e+06   0.000276889
    0.0392492       306.996       289.622       38.5736       4.18436       17.6148             0       -4.0757      -4.96032             0       22.5708       15.7064             0       100.197             0             0      0.209556   0.000151266      0.087335        113184        103707   4.93818e+06   0.000277147
    0.0392242       307.037       289.622       38.5325       4.25551       17.6117             0       -4.0666      -4.96551             0       22.6259       15.7565             0       100.443             0             0      0.209552   0.000151407     0.0873517        113186        103707   4.93811e+06   0.000277405
    0.0391992       307.078       289.621       38.4914       4.32666       17.6086             0       -4.0575       -4.9707             0       22.6809       15.8066             0       100.689             0             0      0.209548   0.000151548     0.0873683        113188        103707   4.93805e+06   0.000277664
    0.0391742       307.119        289.62       38.4504       4.39781       17.6054             0       -4.0484      -4.97589             0       22.7359       15.8568             0       100.935             0             0      0.209543   0.000151689     0.0873849        113190        103706   4.93798e+06   0.000277922
    0.0391491        307.16        289.62       38.4093       4.46896       17.6023             0      -4.03931      -4.98108             0        22.791       15.9069             0       101.181             0             0      0.209539    0.00015183     0.0874015        113192        103706   4.93791e+06    0.00027818
    0.0391241       307.201       289.619       38.3683       4.54011       17.5992             0      -4.03021      -4.98627             0        22.846        15.957             0       101.427             0             0      0.209535   0.000151971     0.0874182        113193        103706   4.93785e+06   0.000278439
    0.0390991       307.242       289.619       38.3272       4.61126       17.5961             0      -4.02111      -4.99146             0        22.901       16.0071             0       101.673             0             0      0.209531   0.000152112     0.0874348        113195        103706   4.93778e+06   0.000278697
    0.0390741       307.283       289.618       38.2861       4.68241        17.593             0      -4.01201      -4.99665             0        22.956       16.0572             0       101.918             0             0      0.209527   0.000152253     0.0874514        113197        103706   4.93772e+06   0.000278955
     0.039049       307.324       289.618       38.2451       4.75356       17.5898             0      -4.00291      -5.00184             0       23.0111       16.1073             0       102.164             0             0      0.209523   0.000152394      0.087468        113199        103705   4.93765e+06   0.000279214
     0.039024       307.365       289.617        38.204       4.82471       17.5867             0      -3.99382      -5.00703             0       23.0661       16.1574             0        102.41             0             0      0.209518   0.000152535     0.0874847        113200        103705   4.93759e+06   0.000279472
     0.038999       307.405       289.616       38.1657       4.89575       17.5832             0      -3.98449      -5.01214             0       23.1217       16.2077             0       102.654             0             0      0.209514   0.000152674     0.0875012        113202        103705   4.93753e+06   0.000279726
     0.038974       307.423       289.617       38.1924       4.96398       17.5707             0      -3.96973      -5.01534             0       23.1911       16.2611             0       102.849             0             0      0.209511   0.000152763     0.0875166        113203        103705   4.93778e+06    0.00027989
    0.0389489       307.441       289.617       38.2191       5.03222       17.5583             0      -3.95496      -5.01855             0       23.2605       16.3145             0       103.044             0             0      0.209507   0.000152852      0.087532        113204        103705   4.93802e+06   0.000280053
    0.0389239       307.459       289.617       38.2458       5.10046       17.5458             0      -3.94019      -5.02176             0       23.3299        16.368             0       103.239             0             0      0.209503   0.000152941     0.0875474        113205        103704   4.93826e+06   0.000280217
    0.0388989       307.476       289.617       38.2725        5.1687       17.5333             0      -3.92543      -5.02496             0       23.3994       16.4214             0       103.433             0             0      0.209499    0.00015303     0.0875628        113207        103704    4.9385e+06    0.00028038
    0.0388739       307.494       289.618       38.2992       5.23693       17.5208             0      -3.91066      -5.02817             0       23.4688       16.4748             0       103.628             0             0      0.209496    0.00015312     0.0875782        113208        103704   4.93875e+06   0.000280544
    0.0388488       307.512       289.618        38.326       5.30517       17.5083             0      -3.89589      -5.03137             0       23.5382       16.5282             0       103.823             0             0      0.209492   0.000153209     0.0875936        113209        103704   4.93899e+06   0.000280707
    0.0388238        307.53       289.618       38.3527       5.37341       17.4958             0      -3.88113      -5.03458             0       23.6076       16.5816             0       104.018             0             0      0.209488   0.000153298      0.087609        113210        103704   4.93923e+06    0.00028087
    0.0387988       307.548       289.619       38.3794       5.44164       17.4833             0      -3.86636      -5.03779             0        23.677       16.6351             0       104.213             0             0      0.209484   0.000153387     0.0876243        113211        103704   4.93948e+06   0.000281034
    0.0387738       307.565       289.619       38.4061       5.50988       17.4708             0      -3.85159      -5.04099             0       23.7464       16.6885             0       104.408             0             0      0.209481   0.000153476     0.0876397        113212        103704   4.93972e+06   0.000281197
    0.0387487       307.583       289.619       38.4328       5.57812       17.4584             0      -3.83683       -5.0442             0       23.8158       16.7419             0       104.603             0             0      0.209477   0.000153565     0.0876551        113213        103703   4.93996e+06   0.000281361
    0.0387237       307.601       289.619       38.4595       5.64636       17.4459             0      -3.82206       -5.0474             0       23.8852       16.7953             0       104.798             0             0      0.209473   0.000153655     0.0876705        113214        103703   4.94021e+06   0.000281524
    0.0386987       307.619        289.62       38.4863       5.71459       17.4334             0      -3.80729      -5.05061             0       23.9546       16.8488             0       104.992             0             0      0.209469   0.000153744     0.0876859        113215        103703   4.94045e+06   0.000281687
    0.0386737       307.636        289.62        38.513       5.78283       17.4209             0      -3.79253      -5.05382             0       24.0241       16.9022             0       105.187             0             0      0.209466   0.000153833     0.0877013        113216        103703   4.94069e+06   0.000281851
    0.0386486       307.654        289.62       38.5397       5.85107       17.4084             0      -3.77776      -5.05702             0       24.0935       16.9556             0       105.382             0             0      0.209462   0.000153922     0.0877167        113217        103703   4.94094e+06   0.000282014
    0.0386236       307.672        289.62       38.5664       5.91931       17.3959             0        -3.763      -5.06023             0       24.1629        17.009             0       105.577             0             0      0.209458   0.000154011      0.087732        113219        103703   4.94118e+06   0.000282178
    0.0385986        307.69       289.621       38.5931       5.98754       17.3834             0      -3.74823      -5.06343             0       24.2323       17.0624             0       105.772             0             0      0.209454   0.000154101     0.0877474        113220        103702   4.94142e+06   0.000282341
    0.0385736       307.708       289.621       38.6198       6.05578       17.3709             0      -3.73346      -5.06664             0       24.3017       17.1159             0       105.967             0             0      0.209451    0.00015419     0.0877628        113221        103702   4.94166e+06   0.000282505
    0.0385485       307.725       289.621       38.6465       6.12402       17.3585             0       -3.7187      -5.06985             0       24.3711       17.1693             0       106.162             0             0      0.209447   0.000154279     0.0877782        113222        103702   4.94191e+06   0.000282668
    0.0385235       307.743       289.621       38.6733       6.19226        17.346             0      -3.70393      -5.07305             0       24.4405       17.2227             0       106.357             0             0      0.209443   0.000154368     0.0877936        113223        103702   4.94215e+06   0.000282831
    0.0384985       307.761       289.622          38.7       6.26049       17.3335             0      -3.68916      -5.07626             0       24.5099       17.2761             0       106.551             0             0      0.209439   0.000154457      0.087809        113224        103702   4.94239e+06   0.000282995
    0.0384735       307.779       289.622       38.7267       6.32873        17.321             0       -3.6744      -5.07946             0       24.5793       17.3295             0       106.746             0             0      0.209436   0.000154547     0.0878244        113225        103702   4.94264e+06   0.000283158
    0.0384484       307.796       289.622       38.7534       6.39697       17.3085             0      -3.65963      -5.08267             0       24.6488        17.383             0       106.941             0             0      0.209432   0.000154636     0.0878397        113226        103701   4.94288e+06   0.000283322
    0.0384234       307.814       289.622       38.7801        6.4652        17.296             0      -3.64486      -5.08588             0       24.7182       17.4364             0       107.136             0             0      0.209428   0.000154725     0.0878551        113227        103701   4.94312e+06   0.000283485
    0.0383984       307.832       289.623       38.8068       6.53344       17.2835             0       -3.6301      -5.08908             0       24.7876       17.4898             0       107.331             0             0      0.209424   0.000154814     0.0878705        113228        103701   4.94337e+06   0.000283648
    0.0383734        307.85       289.623       38.8336       6.60168        17.271             0      -3.61533      -5.09229             0        24.857       17.5432             0       107.526             0             0      0.209421   0.000154903     0.0878859        113230        103701   4.94361e+06   0.000283812
    0.0383483       307.868       289.623       38.8603       6.66992       17.2586             0      -3.60056      -5.09549             0       24.9264       17.5967             0       107.721             0             0      0.209417   0.000154993     0.0879013        113231        103701   4.94385e+06   0.000283975
    0.0383233       307.885       289.623        38.887       6.73815       17.2461             0       -3.5858       -5.0987             0       24.9958       17.6501             0       107.916             0             0      0.209413   0.000155082     0.0879167        113232        103701   4.94409e+06   0.000284139
    0.0382983       307.903       289.624       38.9137       6.80639       17.2336             0      -3.57103      -5.10191             0       25.0652       17.7035             0        108.11             0             0      0.209409   0.000155171     0.0879321        113233        103700   4.94434e+06   0.000284302
    0.0382733       307.921       289.624       38.9404       6.87463       17.2211             0      -3.55627      -5.10511             0       25.1346       17.7569             0       108.305             0             0      0.209406    0.00015526     0.0879474        113234        103700   4.94458e+06   0.000284466
    0.0382482       307.939       289.624       38.9671       6.94287       17.2086             0       -3.5415      -5.10832             0        25.204       17.8103             0         108.5             0             0      0.209402   0.000155349     0.0879628        113235        103700   4.94482e+06   0.000284629
    0.0382232       307.956       289.624       38.9939        7.0111       17.1961             0      -3.52673      -5.11152             0       25.2735       17.8638             0       108.695             0             0      0.209398   0.000155439     0.0879782        113236        103700   4.94507e+06   0.000284792
    0.0381982       307.974       289.625       39.0206       7.07934       17.1836             0      -3.51197      -5.11473             0       25.3429       17.9172             0        108.89             0             0      0.209394   0.000155528     0.0879936        113237        103700   4.94531e+06   0.000284956
    0.0381732       307.992       289.625       39.0473       7.14758       17.1712             0       -3.4972      -5.11794             0       25.4123       17.9706             0       109.085             0             0      0.209391   0.000155617      0.088009        113238        103700   4.94555e+06   0.000285119
    0.0381481        308.01       289.625        39.074       7.21582       17.1587             0      -3.48243      -5.12114             0       25.4817        18.024             0        109.28             0             0      0.209387   0.000155706     0.0880244        113239        103699    4.9458e+06   0.000285283
    0.0381231       308.027       289.626       39.1007       7.28405       17.1462             0      -3.46767      -5.12435             0       25.5511       18.0775             0       109.475             0             0      0.209383   0.000155795     0.0880398        113241        103699   4.94604e+06   0.000285446
    0.0380981       308.045       289.626       39.1274       7.35229       17.1337             0       -3.4529      -5.12755             0       25.6205       18.1309             0       109.669             0             0      0.209379   0.000155885     0.0880551        113242        103699   4.94628e+06    0.00028561
    0.0380731       308.063       289.626       39.1542       7.42053       17.1212             0      -3.43813      -5.13076             0       25.6899       18.1843             0       109.864             0             0      0.209376   0.000155974     0.0880705        113243        103699   4.94653e+06   0.000285773
     0.038048       308.081       289.626       39.1809       7.48876       17.1087             0      -3.42337      -5.13397             0       25.7593       18.2377             0       110.059             0             0      0.209372   0.000156063     0.0880859        113244        103699   4.94677e+06   0.000285936
     0.038023       308.099       289.627       39.2076         7.557       17.0962             0       -3.4086      -5.13717             0       25.8287       18.2911             0       110.254             0             0      0.209368   0.000156152     0.0881013        113245        103699   4.94701e+06     0.0002861
     0.037998       308.115       289.627       39.2406       7.62423        17.083             0      -3.39344      -5.14017             0       25.8969       18.3435             0       110.444             0             0      0.209364   0.000156238      0.088117        113246        103699   4.94728e+06   0.000286258
     0.037973       308.119       289.628       39.3458       7.67985       17.0608             0      -3.37373      -5.14079             0       25.9509        18.383             0       110.574             0             0       0.20936    0.00015629     0.0881357        113246        103698   4.94789e+06   0.000286353
    0.0379479       308.123        289.63        39.451       7.73547       17.0387             0      -3.35402      -5.14141             0       26.0048       18.4225             0       110.705             0             0      0.209355   0.000156342     0.0881544        113247        103698   4.94849e+06   0.000286449
    0.0379229       308.127       289.631       39.5561       7.79109       17.0166             0      -3.33431      -5.14203             0       26.0588        18.462             0       110.836             0             0      0.209351   0.000156395     0.0881731        113247        103698    4.9491e+06   0.000286544
    0.0378979       308.131       289.632       39.6613       7.84671       16.9945             0      -3.31461      -5.14265             0       26.1127       18.5016             0       110.966             0             0      0.209347   0.000156447     0.0881919        113247        103698    4.9497e+06   0.000286639
    0.0378729       308.134       289.633       39.7665       7.90233       16.9724             0       -3.2949      -5.14327             0       26.1667       18.5411             0       111.097             0             0      0.209342   0.000156499     0.0882106        113248        103698   4.95031e+06   0.000286735
    0.0378478       308.138       289.635       39.8717       7.95795       16.9502             0      -3.27519      -5.14389             0       26.2206       18.5806             0       111.228             0             0      0.209338   0.000156551     0.0882293        113248        103698   4.95092e+06    0.00028683
    0.0378228       308.142       289.636       39.9769       8.01357       16.9281             0      -3.25548      -5.14451             0       26.2746       18.6201             0       111.358             0             0      0.209333   0.000156603     0.0882481        113248        103698   4.95152e+06   0.000286926
    0.0377978       308.146       289.637       40.0821       8.06919        16.906             0      -3.23577      -5.14513             0       26.3285       18.6597             0       111.489             0             0      0.209329   0.000156655     0.0882668        113249        103698   4.95213e+06   0.000287021
    0.0377728        308.15       289.639       40.1873       8.12481       16.8839             0      -3.21606      -5.14575             0       26.3825       18.6992             0        111.62             0             0      0.209324   0.000156707     0.0882855        113249        103698   4.95273e+06   0.000287116
    0.0377477       308.153        289.64       40.2924       8.18043       16.8617             0      -3.19635      -5.14637             0       26.4364       18.7387             0        111.75             0             0       0.20932   0.000156759     0.0883043        113249        103698   4.95334e+06   0.000287212
    0.0377227       308.157       289.641       40.3976       8.23605       16.8396             0      -3.17665      -5.14699             0       26.4904       18.7783             0       111.881             0             0      0.209315   0.000156811      0.088323        113250        103697   4.95394e+06   0.000287307