#           y             T         TMean   TPrime2Mean           U_x           U_y           U_z       UMean_x       UMean_y       UMean_z UPrime2Mea... UPrime2Mea... UPrime2Mea... UPrime2Mea... UPrime2Mea... UPrime2Mea...            O2           H2O          C3H8             p         pMean   pPrime2Mean           CO2
         0.03       1895.67       422.298        194052       50.8035      -7.83469             0       8.90675      0.963285             0        281.13      -20.6238             0       54.1359             0             0   1.43245e-12      0.092305     0.0524734        111654        103700   4.11859e+06       0.16912
    0.0301702       1895.42       422.147        193878       51.0072      -7.99203             0       8.88484       1.01904             0       282.163      -19.7061             0       54.0707             0             0   1.82102e-12     0.0922914     0.0526121        111654        103700   4.11805e+06      0.169095
    0.0303403       1895.17       421.996        193704       51.2109      -8.14936             0       8.86292       1.07479             0       283.196      -18.7884             0       54.0054             0             0   2.20959e-12     0.0922779     0.0527508        111653        103701   4.11751e+06       0.16907
    0.0305105       1894.92       421.844        193529       51.4146      -8.30669             0       8.84101       1.13055             0        284.23      -17.8707             0       53.9402             0             0   2.59816e-12     0.0922644     0.0528895        111652        103701   4.11697e+06      0.169046
    0.0306807       1894.67       421.693        193355       51.6183      -8.46402             0       8.81909        1.1863             0       285.263       -16.953             0       53.8749             0             0   2.98673e-12     0.0922509     0.0530282        111652        103701   4.11643e+06      0.169021
    0.0308509       1894.42       421.542        193181        51.822      -8.62135             0       8.79718       1.24206             0       286.297      -16.0353             0       53.8097             0             0    3.3753e-12     0.0922374     0.0531669        111651        103701   4.11589e+06      0.168996
     0.031021          1894       421.389        193004        52.001      -8.78265             0       8.77593       1.29773             0       287.227      -15.1455             0       53.7375             0             0   5.79194e-12       0.09222     0.0533454        111650        103702    4.1154e+06      0.168964
    0.0311912       1892.35        421.22        192802       52.0045      -8.97211             0       8.75946       1.35285             0       287.426      -14.4534             0       53.6162             0             0   2.25983e-11     0.0921752     0.0538058        111650        103702   4.11527e+06      0.168882
    0.0313614       1890.69       421.052        192599       52.0079      -9.16157             0       8.74298       1.40797             0       287.626      -13.7613             0       53.4949             0             0   3.94046e-11     0.0921303     0.0542662        111650        103703   4.11514e+06        0.1688
    0.0315315       1889.04       420.884        192397       52.0114      -9.35103             0        8.7265       1.46309             0       287.826      -13.0693             0       53.3736             0             0    5.6211e-11     0.0920855     0.0547266        111650        103703     4.115e+06      0.168718
    0.0317017       1887.39       420.715        192195       52.0149      -9.54049             0       8.71002       1.51821             0       288.025      -12.3772             0       53.2523             0             0   7.30173e-11     0.0920407      0.055187        111650        103704   4.11487e+06      0.168636
    0.0318719       1885.73       420.547        191993       52.0184      -9.72995             0       8.69354       1.57333             0       288.225      -11.6851             0        53.131             0             0   8.98236e-11     0.0919958     0.0556474        111649        103704   4.11474e+06      0.168554
     0.032042       1882.46       420.373        191781        51.977      -9.93003             0       8.67744       1.62817             0       288.162      -11.0046             0       52.9888             0             0   4.12153e-10     0.0919287     0.0563368        111649        103705   4.11472e+06       0.16843
    0.0322122       1874.23       420.183        191538       51.7989      -10.1625             0       8.66251       1.68216             0       287.302      -10.3594             0       52.7828             0             0    1.6656e-09     0.0917935     0.0577243        111650        103705   4.11503e+06      0.168183
    0.0323824          1866       419.993        191296       51.6208      -10.3949             0       8.64757       1.73615             0       286.441      -9.71411             0       52.5769             0             0   2.91904e-09     0.0916584     0.0591119        111650        103706   4.11534e+06      0.167935
    0.0325526       1857.78       419.803        191054       51.4427      -10.6274             0       8.63264       1.79014             0        285.58      -9.06887             0       52.3709             0             0   4.17249e-09     0.0915233     0.0604994        111651        103707   4.11566e+06      0.167688
    0.0327227       1849.55       419.613        190811       51.2646      -10.8598             0       8.61771       1.84412             0       284.719      -8.42362             0       52.1649             0             0   5.42593e-09     0.0913881      0.061887        111652        103707   4.11597e+06       0.16744
    0.0328929       1841.33       419.423        190569       51.0865      -11.0923             0       8.60277       1.89811             0       283.859      -7.77837             0        51.959             0             0   6.67938e-09      0.091253     0.0632745        111652        103708   4.11628e+06      0.167192
    0.0330631       1827.82       419.219        190298       50.9084      -11.3315             0       8.58792       1.95024             0       282.832      -7.19325             0       51.7296             0             0   2.67678e-08     0.0910761     0.0650907        111653        103709   4.11672e+06      0.166868
    0.0332332       1805.33       418.992        189977       50.7303      -11.5822             0        8.5732       1.99922             0       281.522      -6.71024             0       51.4605             0             0   7.88459e-08     0.0908283     0.0676349        111655        103709   4.11735e+06      0.166414
    0.0334034       1782.85       418.765        189657       50.5521      -11.8329             0       8.55848       2.04819             0       280.213      -6.22723             0       51.1914             0             0   1.30924e-07     0.0905805     0.0701791        111657        103710   4.11799e+06       0.16596
    0.0335736       1760.36       418.538        189337        50.374      -12.0837             0       8.54376       2.09717             0       278.904      -5.74423             0       50.9223             0             0   1.83002e-07     0.0903327     0.0727234        111659        103711   4.11862e+06      0.165506
    0.0337437       1737.87       418.311        189016       50.1958      -12.3344             0       8.52904       2.14614             0       277.594      -5.26122             0       50.6531             0             0    2.3508e-07     0.0900848     0.0752676        111661        103712   4.11926e+06      0.165052
    0.0339139       1715.39       418.084        188696       50.0177      -12.5851             0       8.51432       2.19512             0       276.285      -4.77821             0        50.384             0             0   2.87158e-07      0.089837     0.0778118        111663        103713   4.11989e+06      0.164598
    0.0340841       1692.21        417.84        188339       50.0798      -12.7584             0       8.49998       2.24124             0       274.927      -4.34164             0       50.0743             0             0   3.78846e-07     0.0896071      0.080172        111665        103713   4.12063e+06      0.164177
    0.0342543       1668.32       417.577        187946       50.3879      -12.8524             0       8.48604       2.28444             0        273.52       -3.9526             0       49.7231             0             0   5.11086e-07     0.0893956     0.0823439        111669        103714   4.12146e+06      0.163789
    0.0344244       1644.43       417.314        187552        50.696      -12.9464             0       8.47209       2.32764             0       272.113      -3.56356             0       49.3719             0             0   6.43326e-07      0.089184     0.0845157        111672        103715   4.12229e+06      0.163402
    0.0345946       1620.55       417.052        187158        51.004      -13.0404             0       8.45814       2.37084             0       270.706      -3.17453             0       49.0207             0             0   7.75567e-07     0.0889724     0.0866875        111675        103716   4.12312e+06      0.163014
    0.0347648       1596.66       416.789        186764       51.3121      -13.1344             0       8.44419       2.41404             0       269.299      -2.78549             0       48.6695             0             0   9.07807e-07     0.0887609     0.0888594        111679        103717   4.12395e+06      0.162626
    0.0349349       1572.77       416.526        186371       51.6202      -13.2284             0       8.43024       2.45724             0       267.892      -2.39646             0       48.3183             0             0   1.04005e-06     0.0885493     0.0910312        111682        103718   4.12479e+06      0.162239
    0.0351051       1553.94       416.253        185960       52.1855      -13.1948             0         8.418       2.49544             0       266.471      -2.10332             0       47.9143             0             0   1.06374e-06     0.0883852     0.0927159        111686        103719   4.12569e+06      0.161938
    0.0352753       1538.23       415.973        185539         52.91      -13.0822             0       8.40682       2.53054             0       265.042      -1.86956             0       47.4777             0             0   1.02023e-06     0.0882506      0.094099        111691        103720   4.12665e+06      0.161692
    0.0354454       1522.53       415.693        185118       53.6345      -12.9697             0       8.39564       2.56563             0       263.612      -1.63579             0        47.041             0             0   9.76728e-07     0.0881159     0.0954821        111696        103721   4.12761e+06      0.161445
    0.0356156       1506.82       415.413        184696        54.359      -12.8571             0       8.38446       2.60073             0       262.183      -1.40203             0       46.6043             0             0   9.33223e-07     0.0879813     0.0968652        111701        103722   4.12857e+06      0.161198
    0.0357858       1491.11       415.134        184275       55.0835      -12.7445             0       8.37328       2.63583             0       260.754      -1.16826             0       46.1676             0             0   8.89718e-07     0.0878466     0.0982483        111705        103723   4.12952e+06      0.160951
     0.035956       1475.41       414.854        183854       55.8081       -12.632             0        8.3621       2.67092             0       259.324     -0.934494             0        45.731             0             0   8.46213e-07      0.087712     0.0996313        111710        103724   4.13048e+06      0.160705
    0.0361261       1465.01       414.563        183420        56.639      -12.4102             0       8.35405       2.70032             0       257.913     -0.772656             0       45.2444             0             0   7.36072e-07     0.0876147      0.100632        111716        103725   4.13146e+06      0.160526
    0.0362963       1456.46       414.269        182982       57.5072      -12.1502             0        8.3471       2.72772             0       256.507     -0.635935             0       44.7403             0             0   6.02662e-07     0.0875304      0.101498        111722        103727   4.13244e+06      0.160372
    0.0364665       1447.91       413.975        182544       58.3753      -11.8902             0       8.34014       2.75512             0       255.101     -0.499213             0       44.2363             0             0   4.69251e-07     0.0874461      0.102365        111728        103728   4.13343e+06      0.160218
    0.0366366       1439.36        413.68        182107       59.2434      -11.6303             0       8.33318       2.78252             0       253.695     -0.362492             0       43.7322             0             0   3.35841e-07     0.0873619      0.103231        111734        103729   4.13441e+06      0.160063
    0.0368068       1430.82       413.386        181669       60.1116      -11.3703             0       8.32623       2.80993             0       252.289     -0.225771             0       43.2282             0             0   2.02431e-07     0.0872776      0.104098        111740        103730    4.1354e+06      0.159909
     0.036977       1422.27       413.092        181231       60.9797      -11.1103             0       8.31927       2.83733             0       250.884    -0.0890498             0       42.7241             0             0   6.90203e-08     0.0871933      0.104965        111746        103731   4.13638e+06      0.159754
    0.0371471       1424.12       412.758        180731       61.7463      -10.7238             0       8.31622       2.85557             0       249.437    -0.0484073             0       42.1677             0             0   4.35431e-08     0.0872125      0.104769        111751        103733   4.13738e+06       0.15979
    0.0373173        1427.6       412.418        180222        62.497      -10.3174             0       8.31378       2.87238             0       247.985    -0.0227975             0       41.6031             0             0   3.49535e-08     0.0872478      0.104407        111756        103734   4.13837e+06      0.159854
    0.0374875       1431.08       412.078        179713       63.2477      -9.91099             0       8.31133       2.88919             0       246.533    0.00281234             0       41.0385             0             0   2.63639e-08     0.0872832      0.104046        111761        103735   4.13937e+06      0.159919
    0.0376577       1434.55       411.738        179205       63.9984      -9.50461             0       8.30889         2.906             0        245.08     0.0284222             0       40.4739             0             0   1.77743e-08     0.0873185      0.103684        111766        103736   4.14036e+06      0.159984
    0.0378278       1438.03       411.398        178696       64.7492      -9.09822             0       8.30645       2.92281             0       243.628      0.054032             0       39.9093             0             0   9.18465e-09     0.0873539      0.103322        111771        103738   4.14136e+06      0.160049
     0.037998       1441.51       411.058        178187       65.4999      -8.69183             0       8.30401       2.93961             0       242.176     0.0796418             0       39.3447             0             0   5.95027e-10     0.0873892       0.10296        111776        103739   4.14235e+06      0.160113
    0.0381682       1449.93       410.637        177549       65.7499      -8.25123             0       8.30619       2.94464             0       240.568      0.127657             0       38.7185             0             0   4.11181e-10     0.0874908      0.101919        111779        103740   4.14339e+06        0.1603
    0.0383383        1458.4       410.215        176910       65.9939      -7.81021             0       8.30842       2.94953             0       238.959       0.17594             0       38.0915             0             0   3.27404e-10     0.0875932      0.100869        111782        103742   4.14443e+06      0.160487
    0.0385085       1466.88       409.793        176271        66.238       -7.3692             0       8.31066       2.95443             0       237.349      0.224222             0       37.4646             0             0   2.43628e-10     0.0876956     0.0998185        111785        103743   4.14547e+06      0.160675
    0.0386787       1475.36       409.371        175632       66.4821      -6.92819             0       8.31289       2.95932             0        235.74      0.272504             0       36.8377             0             0   1.59851e-10      0.087798     0.0987685        111788        103744    4.1465e+06      0.160862
    0.0388488       1483.83       408.949        174993       66.7261      -6.48718             0       8.31512       2.96421             0       234.131      0.320786             0       36.2108             0             0   7.60743e-11     0.0879004     0.0977185        111791        103746   4.14754e+06       0.16105
     0.039019       1492.45        408.52        174345          66.9       -6.0497             0       8.31777       2.96756             0       232.503      0.371448             0       35.5774             0             0   1.63047e-12     0.0880057     0.0966385        111794        103747   4.14858e+06      0.161243
    0.0391892       1502.18       408.032        173617        66.516      -5.64032             0        8.3237        2.9587             0       230.723       0.44102             0       34.8934             0             0   1.35838e-12     0.0881341     0.0953196        111795        103748   4.14963e+06      0.161478
    0.0393594       1511.91       407.544        172889        66.132      -5.23095             0       8.32964       2.94985             0       228.943      0.510592             0       34.2093             0             0   1.08629e-12     0.0882625     0.0940007        111796        103750   4.15068e+06      0.161713
    0.0395295       1521.64       407.055        172161       65.7481      -4.82157             0       8.33557       2.94099             0       227.163      0.580164             0       33.5252             0             0     8.142e-13     0.0883909     0.0926819        111797        103751   4.15173e+06      0.161949
    0.0396997       1531.37       406.567        171433       65.3641       -4.4122             0        8.3415       2.93214             0       225.384      0.649736             0       32.8411             0             0    5.4211e-13     0.0885193      0.091363        111798        103753   4.15278e+06      0.162184
    0.0398699       1541.09       406.079        170705       64.9801      -4.00282             0       8.34743       2.92328             0       223.604      0.719308             0       32.1571             0             0   2.70021e-13     0.0886478     0.0900442        111799        103754   4.15383e+06      0.162419
      0.04004        1552.6       405.589        169984       64.4942      -3.61185             0        8.3541       2.91195             0       221.821      0.799159             0       31.4633             0             0   7.65892e-14     0.0887806     0.0886793        111800        103755   4.15488e+06      0.162663
    0.0402102       1569.87       405.094        169286       63.6768       -3.2807             0       8.36314        2.8926             0       220.028      0.912416             0       30.7383             0             0   1.38792e-13      0.088928      0.087165        111801        103757   4.15593e+06      0.162933
    0.0403804       1587.13       404.598        168589       62.8595      -2.94955             0       8.37218       2.87324             0       218.236       1.02567             0       30.0133             0             0   2.00995e-13     0.0890754     0.0856507        111802        103758   4.15699e+06      0.163203
    0.0405506        1604.4       404.103        167891       62.0421       -2.6184             0       8.38123       2.85389             0       216.443       1.13893             0       29.2883             0             0   2.63198e-13     0.0892228     0.0841364        111802        103760   4.15804e+06      0.163473
    0.0407207       1621.67       403.608        167193       61.2248      -2.28725             0       8.39027       2.83454             0        214.65       1.25219             0       28.5633             0             0   3.25401e-13     0.0893702      0.082622        111803        103761    4.1591e+06      0.163743
    0.0408909       1638.94       403.112        166496       60.4074       -1.9561             0       8.39931       2.81518             0       212.857       1.36545             0       27.8382             0             0   3.87604e-13     0.0895176     0.0811077        111804        103762   4.16016e+06      0.164013
    0.0410611       1657.89       402.588        165752       59.6632      -1.72587             0       8.40907       2.79268             0       211.123       1.43684             0       27.1165             0             0   4.67675e-13     0.0896644     0.0795992        111805        103764   4.16115e+06      0.164282
    0.0412312       1679.86       402.014        164927       59.0499        -1.676             0       8.42011       2.76455             0       209.495       1.43343             0       26.4004             0             0   5.79672e-13     0.0898102      0.078101        111807        103765   4.16202e+06      0.164549
    0.0414014       1701.82       401.439        164101       58.4365      -1.62613             0       8.43115       2.73643             0       207.867       1.43002             0       25.6844             0             0   6.91669e-13     0.0899561     0.0766028        111809        103767    4.1629e+06      0.164816
    0.0415716       1723.79       400.865        163276       57.8231      -1.57625             0       8.44219        2.7083             0       206.238       1.42661             0       24.9684             0             0   8.03666e-13      0.090102     0.0751047        111811        103768   4.16377e+06      0.165084
    0.0417417       1745.76        400.29        162450       57.2098      -1.52638             0       8.45323       2.68018             0        204.61        1.4232             0       24.2523             0             0   9.15664e-13     0.0902478     0.0736065        111812        103770   4.16465e+06      0.165351
    0.0419119       1767.72       399.715        161625       56.5964      -1.47651             0       8.46427       2.65205             0       202.982       1.41979             0       23.5363             0             0   1.02766e-12     0.0903937     0.0721083        111814        103771   4.16552e+06      0.165618
    0.0420821       1786.11       399.059        160670       56.3035      -1.53301             0       8.47507       2.62151             0       201.565       1.37137             0        22.829             0             0   1.40246e-12     0.0905267     0.0707412        111816        103773   4.16639e+06      0.165862
    0.0422523       1800.66       398.316        159575       56.3546      -1.70366             0       8.48561       2.58838             0       200.374       1.27464             0       22.1312             0             0    2.0593e-12     0.0906461     0.0695147        111819        103774   4.16726e+06      0.166081
    0.0424224        1815.2       397.573        158481       56.4057      -1.87432             0       8.49615       2.55524             0       199.183       1.17791             0       21.4334             0             0   2.71613e-12     0.0907655     0.0682881        111822        103775   4.16813e+06      0.166299
    0.0425926       1829.75       396.829        157387       56.4568      -2.04497             0       8.50669       2.52211             0       197.993       1.08118             0       20.7355             0             0   3.37296e-12     0.0908849     0.0670616        111824        103777     4.169e+06      0.166518
    0.0427628        1844.3       396.086        156293       56.5079      -2.21563             0       8.51722       2.48898             0       196.802      0.984445             0       20.0377             0             0    4.0298e-12     0.0910043     0.0658351        111827        103778   4.16986e+06      0.166737
    0.0429329       1858.85       395.343        155198        56.559      -2.38628             0       8.52776       2.45584             0       195.611      0.887714             0       19.3399             0             0   4.68663e-12     0.0911236     0.0646086        111830        103780   4.17073e+06      0.166955
    0.0431031       1867.53       394.563        154090       56.8901      -2.62986             0       8.53531       2.41789             0       194.664      0.663008             0         18.68             0             0   8.73554e-12      0.091215     0.0636695        111832        103781   4.17154e+06      0.167123
    0.0432733        1872.4       393.761        152973       57.4032      -2.92087             0       8.54092       2.37679             0       193.875      0.355057             0       18.0447             0             0    1.4991e-11     0.0912882     0.0629174        111834        103782   4.17232e+06      0.167257
    0.0434434       1877.28       392.958        151856       57.9163      -3.21188             0       8.54652        2.3357             0       193.086     0.0471052             0       17.4095             0             0   2.12464e-11     0.0913614     0.0621654        111837        103784   4.17309e+06      0.167391
    0.0436136       1882.15       392.155        150739       58.4294      -3.50289             0       8.55213       2.29461             0       192.297     -0.260846             0       16.7743             0             0   2.75018e-11     0.0914346     0.0614133        111839        103785   4.17387e+06      0.167525
    0.0437838       1887.02       391.353        149621       58.9426       -3.7939             0       8.55774       2.25351             0       191.508     -0.568797             0       16.1391             0             0   3.37572e-11     0.0915078     0.0606612        111842        103787   4.17464e+06      0.167659
     0.043954       1891.89        390.55        148504       59.4557      -4.08491             0       8.56334       2.21242             0       190.719     -0.876749             0       15.5038             0             0   4.00126e-11      0.091581     0.0599091        111844        103788   4.17542e+06      0.167794
    0.0441241       1893.85       389.762        147445       59.9972      -4.27132             0       8.56435       2.16559             0         190.1      -1.22615             0       14.8958             0             0     4.705e-11     0.0916441     0.0592615        111846        103789    4.1762e+06      0.167909
    0.0442943       1894.73        388.98        146408       60.5491      -4.41893             0       8.56365       2.11662             0       189.544      -1.59093             0       14.2978             0             0   5.43776e-11     0.0917034     0.0586527        111849        103791   4.17697e+06      0.168018
    0.0444645       1895.61       388.197        145371       61.1011      -4.56654             0       8.56295       2.06766             0       188.989      -1.95571             0       13.6998             0             0   6.17051e-11     0.0917626     0.0580438        111851        103792   4.17775e+06      0.168126
    0.0446346       1896.48       387.415        144334       61.6531      -4.71414             0       8.56225        2.0187             0       188.433      -2.32048             0       13.1018             0             0   6.90327e-11     0.0918219      0.057435        111853        103793   4.17852e+06      0.168235
    0.0448048       1897.36       386.632        143297        62.205      -4.86175             0       8.56154       1.96974             0       187.877      -2.68526             0       12.5038             0             0   7.63602e-11     0.0918812     0.0568262        111856        103795    4.1793e+06      0.168343
     0.044975       1898.24        385.85        142260        62.757      -5.00936             0       8.56084       1.92078             0       187.322      -3.05004             0       11.9058             0             0   8.36878e-11     0.0919404     0.0562174        111858        103796   4.18008e+06      0.168452
    0.0451451        1898.5       384.999        141101       63.2138      -5.16154             0       8.54891       1.86008             0       186.578      -3.53908             0       11.4172             0             0   1.15671e-10      0.092007     0.0555335        111860        103797   4.18065e+06      0.168574
    0.0453153       1898.66       384.137        139921       63.6541      -5.31451             0       8.53504       1.79736             0       185.803      -4.04954             0       10.9475             0             0   1.51905e-10     0.0920749     0.0548367        111862        103798   4.18119e+06      0.168698
    0.0454855       1898.82       383.275        138740       64.0945      -5.46748             0       8.52116       1.73465             0       185.027         -4.56             0       10.4778             0             0   1.88139e-10     0.0921428     0.0541399        111864        103800   4.18173e+06      0.168823