#           y             T         TMean   TPrime2Mean           U_x           U_y           U_z       UMean_x       UMean_y       UMean_z UPrime2Mea... UPrime2Mea... UPrime2Mea... UPrime2Mea... UPrime2Mea... UPrime2Mea...            O2           H2O          C3H8             p         pMean   pPrime2Mean           CO2
         0.02       471.951       365.341       55415.7       22.9775       5.86544             0       21.6966    -0.0607696             0       37.1454      -3.16349             0       23.9897             0             0      0.121422   0.000819466      0.463665        113292        103758   5.03844e+06    0.00150141
    0.0201677       471.225       362.688       52802.1         22.74       6.03392             0        21.691    -0.0466543             0       37.1042      -2.66526             0       24.3304             0             0      0.122315   0.000872597      0.459238        113290        103758   5.04059e+06    0.00159876
    0.0203353       470.499       360.035       50188.5       22.5026       6.20239             0       21.6854    -0.0325389             0       37.0629      -2.16702             0       24.6711             0             0      0.123208   0.000925728      0.454811        113287        103758   5.04273e+06    0.00169611
     0.020503       469.773       357.381       47574.9       22.2652       6.37087             0       21.6798    -0.0184236             0       37.0217      -1.66878             0       25.0118             0             0      0.124101   0.000978859      0.450383        113285        103757   5.04487e+06    0.00179345
    0.0206707       469.047       354.728       44961.2       22.0277       6.53934             0       21.6742   -0.00430825             0       36.9804      -1.17054             0       25.3525             0             0      0.124993    0.00103199      0.445956        113282        103757   5.04701e+06     0.0018908
    0.0208383       468.321       352.075       42347.6       21.7903       6.70781             0       21.6686    0.00980709             0       36.9391     -0.672301             0       25.6932             0             0      0.125886    0.00108512      0.441529        113279        103757   5.04915e+06    0.00198814
     0.021006        467.48       349.442       39761.8       21.5485       6.87717             0       21.6581     0.0242974             0       36.9013     -0.164834             0       26.0354             0             0      0.126772     0.0011394      0.437121        113277        103756   5.05129e+06     0.0020876
    0.0211737       463.528        347.35       37925.2       21.1886       7.07023             0       21.5154     0.0488798             0        36.955      0.591031             0       26.4177             0             0      0.127467    0.00122463      0.433223        113277        103756   5.05327e+06    0.00224375
    0.0213413       459.577       345.259       36088.6       20.8288       7.26329             0       21.3728     0.0734622             0       37.0088        1.3469             0          26.8             0             0      0.128162    0.00130986      0.429325        113278        103756   5.05525e+06     0.0023999
     0.021509       455.625       343.167       34251.9       20.4689       7.45635             0       21.2301     0.0980446             0       37.0625       2.10276             0       27.1823             0             0      0.128858    0.00139509      0.425427        113278        103755   5.05724e+06    0.00255606
    0.0216767       451.673       341.075       32415.3        20.109       7.64942             0       21.0874      0.122627             0       37.1162       2.85863             0       27.5646             0             0      0.129553    0.00148032      0.421529        113279        103755   5.05922e+06    0.00271221
    0.0218443       447.722       338.984       30578.7       19.7491       7.84248             0       20.9447      0.147209             0         37.17       3.61449             0       27.9469             0             0      0.130248    0.00156554      0.417631        113279        103754   5.06121e+06    0.00286837
     0.022012       443.529       336.921       28777.4       19.4017       8.04085             0       20.7926      0.171033             0       37.2103        4.3763             0        28.335             0             0       0.13096     0.0016438      0.413733        113279        103754   5.06318e+06    0.00301175
    0.0221797       436.215       335.242       27434.3       19.2148       8.30803             0       20.5177      0.185029             0       37.0771       5.21507             0       28.7984             0             0      0.131886    0.00163175       0.40983        113278        103754    5.0651e+06    0.00298966
    0.0223473       428.901       333.562       26091.1        19.028       8.57521             0       20.2428      0.199025             0       36.9438       6.05385             0       29.2618             0             0      0.132812    0.00161969      0.405927        113276        103753   5.06701e+06    0.00296758
     0.022515       421.587       331.882       24747.9       18.8412       8.84238             0       19.9679      0.213021             0       36.8105       6.89263             0       29.7252             0             0      0.133739    0.00160764      0.402024        113274        103753   5.06892e+06    0.00294549
    0.0226827       414.273       330.203       23404.8       18.6543       9.10956             0        19.693      0.227016             0       36.6773       7.73141             0       30.1886             0             0      0.134665    0.00159558      0.398121        113272        103752   5.07084e+06     0.0029234
    0.0228504       406.958       328.523       22061.6       18.4675       9.37674             0       19.4181      0.241012             0        36.544       8.57018             0        30.652             0             0      0.135591    0.00158352      0.394218        113271        103752   5.07275e+06    0.00290131
     0.023018       399.638       326.879       20752.2       18.3185       9.64166             0       19.1328      0.252448             0       36.3894       9.39725             0       31.1419             0             0      0.136564    0.00156123      0.390215        113269        103752   5.07469e+06    0.00286047
    0.0231857       392.265       325.533       19723.7       18.4839       9.88787             0        18.761      0.242619             0       36.0582       10.1271             0       31.8516             0             0       0.13793    0.00145391      0.385377        113266        103751    5.0768e+06    0.00266383
    0.0233534       384.892       324.187       18695.1       18.6492       10.1341             0       18.3892       0.23279             0        35.727       10.8569             0       32.5614             0             0      0.139297    0.00134659      0.380539        113264        103751   5.07892e+06     0.0024672
     0.023521        377.52        322.84       17666.6       18.8146       10.3803             0       18.0174      0.222962             0       35.3957       11.5867             0       33.2711             0             0      0.140663    0.00123927      0.375701        113262        103751   5.08104e+06    0.00227057
    0.0236887       370.147       321.494         16638         18.98       10.6265             0       17.6456      0.213133             0       35.0645       12.3165             0       33.9808             0             0      0.142029    0.00113195      0.370862        113260        103750   5.08316e+06    0.00207394
    0.0238564       362.774       320.148       15609.4       19.1453       10.8727             0       17.2738      0.203304             0       34.7332       13.0463             0       34.6906             0             0      0.143395    0.00102463      0.366024        113257        103750   5.08528e+06    0.00187731
     0.024024       355.705       318.832       14611.1       19.3345       11.1009             0       16.9026      0.188877             0       34.4538       13.7463             0       35.4463             0             0      0.144869   0.000919858      0.360693        113255        103750   5.08742e+06    0.00168535
    0.0241917       350.448       317.695       13793.5       19.6662       11.2216             0       16.5348      0.146957             0       34.4846       14.2682             0       36.4774             0             0      0.146983   0.000830356      0.352417        113256        103749   5.08963e+06    0.00152137
    0.0243594       345.191       316.559       12975.8       19.9979       11.3423             0       16.1669      0.105037             0       34.5154       14.7901             0       37.5085             0             0      0.149098   0.000740853      0.344141        113256        103749   5.09185e+06    0.00135738
     0.024527       339.935       315.423       12158.2       20.3296        11.463             0       15.7991     0.0631166             0       34.5461       15.3119             0       38.5396             0             0      0.151213   0.000651351      0.335865        113256        103749   5.09407e+06     0.0011934
    0.0246947       334.678       314.287       11340.5       20.6613       11.5837             0       15.4313     0.0211964             0       34.5769       15.8338             0       39.5706             0             0      0.153328   0.000561848      0.327589        113256        103748   5.09629e+06    0.00102941
    0.0248624       329.421       313.151       10522.8       20.9929       11.7043             0       15.0635    -0.0207239             0       34.6076       16.3557             0       40.6017             0             0      0.155443   0.000472346      0.319313        113257        103748   5.09851e+06   0.000865426
      0.02503       324.572       312.045       9741.29        21.302       11.8062             0        14.711    -0.0674579             0       34.6602       16.8586             0       41.6988             0             0      0.157677   0.000391121      0.310433        113258        103747   5.10081e+06   0.000716607
    0.0251977       321.591       311.079       9125.19       21.5076       11.8219             0        14.429     -0.136255             0       34.8129       17.2747             0       43.0984             0             0      0.160458   0.000347838      0.298784        113262        103747   5.10349e+06   0.000637303
    0.0253654        318.61       310.113       8509.08       21.7132       11.8375             0        14.147     -0.205052             0       34.9657       17.6909             0       44.4981             0             0       0.16324   0.000304554      0.287134        113267        103746   5.10618e+06   0.000557999
     0.025533       315.629       309.147       7892.98       21.9188       11.8532             0        13.865      -0.27385             0       35.1184        18.107             0       45.8977             0             0      0.166021    0.00026127      0.275485        113272        103745   5.10886e+06   0.000478695
    0.0257007       312.647       308.181       7276.88       22.1244       11.8688             0        13.583     -0.342647             0       35.2711       18.5231             0       47.2973             0             0      0.168803   0.000217986      0.263836        113277        103744   5.11154e+06   0.000399391
    0.0258684       309.666       307.215       6660.77         22.33       11.8845             0        13.301     -0.411444             0       35.4239       18.9392             0        48.697             0             0      0.171585   0.000174702      0.252187        113281        103744   5.11423e+06   0.000320087
     0.026036       306.993       306.293       6089.52       22.4967       11.8805             0       13.0298      -0.48347             0       35.5008       19.3407             0       50.1623             0             0      0.174397    0.00013728      0.240344        113287        103743   5.11689e+06   0.000251522
    0.0262037       305.447       305.529       5682.12       22.5214       11.8048             0       12.7985     -0.567293             0       35.3009       19.6888             0       51.8676             0             0      0.177321   0.000121265      0.227796        113296        103742   5.11947e+06    0.00022218
    0.0263714         303.9       304.765       5274.72       22.5461       11.7292             0       12.5672     -0.651115             0        35.101       20.0368             0       53.5729             0             0      0.180244   0.000105251      0.215248        113306        103741   5.12204e+06   0.000192839
     0.026539       302.353       304.001       4867.32       22.5708       11.6535             0       12.3359     -0.734938             0       34.9011       20.3849             0       55.2782             0             0      0.183168   8.92362e-05        0.2027        113315        103739   5.12462e+06   0.000163497
    0.0267067       300.807       303.237       4459.92       22.5955       11.5778             0       12.1046      -0.81876             0       34.7012       20.7329             0       56.9835             0             0      0.186092   7.32217e-05      0.190152        113324        103738    5.1272e+06   0.000134156
    0.0268744        299.26       302.473       4052.53       22.6202       11.5022             0       11.8734     -0.902583             0       34.5014        21.081             0       58.6888             0             0      0.189016   5.72073e-05      0.177604        113334        103737   5.12978e+06   0.000104814
     0.027042       297.908       301.765       3688.87       22.5784       11.4028             0       11.6345     -0.987632             0       34.2688       21.3968             0       60.4513             0             0      0.191795   4.38625e-05       0.16566        113343        103736   5.13235e+06   8.03643e-05
    0.0272097       297.138       301.225       3455.93        22.338       11.2324             0       11.3729      -1.07635             0       33.9384       21.6163             0        62.385             0             0      0.194139   3.84951e-05      0.155521        113353        103735   5.13489e+06   7.05302e-05
    0.0273774       296.367       300.684       3222.99       22.0977        11.062             0       11.1114      -1.16506             0       33.6081       21.8357             0       64.3188             0             0      0.196484   3.31277e-05      0.145382        113363        103733   5.13743e+06   6.06962e-05
     0.027545       295.597       300.144       2990.05       21.8573       10.8916             0       10.8499      -1.25377             0       33.2778       22.0552             0       66.2525             0             0      0.198828   2.77603e-05      0.135244        113373        103732   5.13997e+06   5.08621e-05
    0.0277127       294.827       299.604        2757.1       21.6169       10.7212             0       10.5883      -1.34249             0       32.9474       22.2747             0       68.1862             0             0      0.201173   2.23929e-05      0.125105        113383        103731   5.14251e+06   4.10281e-05
    0.0278804       294.056       299.063       2524.16       21.3765       10.5508             0       10.3268       -1.4312             0       32.6171       22.4941             0       70.1199             0             0      0.203518   1.70256e-05      0.114966        113393        103729   5.14505e+06    3.1194e-05
     0.028048       293.429       298.567       2318.32       21.0565       10.3445             0       10.0588      -1.52276             0       32.2675       22.6602             0       72.0568             0             0      0.205559   1.27885e-05      0.106133        113402        103728    5.1473e+06    2.3431e-05
    0.0282157       293.159       298.181       2179.94        20.538       10.0486             0       9.77464      -1.62139             0       31.8697       22.6931             0       74.0015             0             0      0.206847   1.13657e-05      0.100547        113408        103726   5.14883e+06    2.0824e-05
    0.0283834       292.888       297.795       2041.56       20.0194       9.75274             0       9.49051      -1.72002             0        31.472       22.7261             0       75.9462             0             0      0.208135   9.94281e-06     0.0949621        113413        103725   5.15036e+06   1.82171e-05
    0.0285511       292.617       297.409       1903.17       19.5009       9.45687             0       9.20637      -1.81864             0       31.0742       22.7591             0       77.8909             0             0      0.209423   8.51995e-06     0.0893769        113419        103723   5.15189e+06   1.56101e-05
    0.0287187       292.347       297.023       1764.79       18.9824         9.161             0       8.92224      -1.91727             0       30.6765       22.7921             0       79.8355             0             0      0.210711   7.09709e-06     0.0837916        113425        103722   5.15342e+06   1.30032e-05
    0.0288864       292.076       296.637       1626.41       18.4639       8.86513             0       8.63811       -2.0159             0       30.2787       22.8251             0       81.7802             0             0      0.211999   5.67422e-06     0.0782064        113431        103720   5.15494e+06   1.03962e-05
    0.0290541       291.884       296.281       1503.97       17.8879       8.56468             0       8.35214      -2.11731             0       29.8704       22.7924             0       83.6582             0             0      0.213014   4.73575e-06     0.0738025        113435        103719   5.15633e+06   8.67677e-06
    0.0292217       291.856        295.99       1415.02        17.191       8.25461             0       8.06231      -2.22458             0       29.4399       22.6218             0        85.396             0             0      0.213456   4.81537e-06      0.071882        113435        103717    5.1574e+06   8.82266e-06
    0.0293894       291.828       295.699       1326.08       16.4942       7.94454             0       7.77248      -2.33184             0       29.0093       22.4512             0       87.1338             0             0      0.213897     4.895e-06     0.0699614        113435        103716   5.15848e+06   8.96855e-06
    0.0295571         291.8       295.408       1237.13       15.7973       7.63447             0       7.48266      -2.43911             0       28.5787       22.2806             0       88.8715             0             0      0.214339   4.97463e-06     0.0680408        113435        103714   5.15956e+06   9.11445e-06
    0.0297247       291.772       295.117       1148.19       15.1004        7.3244             0       7.19283      -2.54637             0       28.1482         22.11             0       90.6093             0             0       0.21478   5.05425e-06     0.0661203        113435        103713   5.16063e+06   9.26034e-06
    0.0298924       291.744       294.827       1059.24       14.4035       7.01433             0         6.903      -2.65364             0       27.7176       21.9394             0       92.3471             0             0      0.215222   5.13388e-06     0.0641997        113435        103711   5.16171e+06   9.40623e-06
    0.0300601       291.745        294.56       981.415       13.7823       6.74801             0         6.617      -2.76166             0       27.3428       21.7277             0       93.9568             0             0      0.215517   5.51419e-06     0.0629132        113433        103710   5.16233e+06    1.0103e-05
    0.0302277       291.799       294.335       923.502       13.2967       6.56006             0       6.33786      -2.87105             0       27.0679       21.4424             0        95.337             0             0      0.215549   6.43324e-06     0.0627628        113429        103708   5.16214e+06   1.17869e-05
    0.0303954       291.852       294.111       865.589       12.8111       6.37211             0       6.05871      -2.98043             0       26.7931        21.157             0       96.7172             0             0      0.215582   7.35228e-06     0.0626123        113424        103707   5.16195e+06   1.34707e-05
    0.0305631       291.905       293.887       807.676       12.3255       6.18417             0       5.77957      -3.08982             0       26.5182       20.8717             0       98.0974             0             0      0.215614   8.27132e-06     0.0624619        113419        103706   5.16176e+06   1.51546e-05
    0.0307307       291.958       293.663       749.763       11.8399       5.99622             0       5.50043       -3.1992             0       26.2433       20.5863             0       99.4776             0             0      0.215647   9.19036e-06     0.0623115        113414        103704   5.16157e+06   1.68385e-05
    0.0308984       292.011       293.438        691.85       11.3543       5.80827             0       5.22129      -3.30859             0       25.9684        20.301             0       100.858             0             0      0.215679   1.01094e-05     0.0621611        113410        103703   5.16138e+06   1.85223e-05
    0.0310661       292.093       293.235       642.007       10.9789       5.69535             0       4.94878       -3.4149             0        25.779       20.0064             0         102.1             0             0      0.215617   1.16075e-05     0.0624139        113405        103702   5.16109e+06   2.12671e-05
    0.0312337       292.218       293.064       604.574       10.7732        5.6978             0       4.68649       -3.5165             0       25.7211       19.6977             0        103.13             0             0      0.215411   1.39961e-05     0.0632869        113400        103701   5.16062e+06   2.56435e-05
    0.0314014       292.344       292.892       567.141       10.5674       5.70025             0       4.42419      -3.61809             0       25.6633        19.389             0       104.159             0             0      0.215205   1.63848e-05     0.0641599        113395        103700   5.16016e+06   3.00199e-05
    0.0315691       292.469       292.721       529.708       10.3616        5.7027             0        4.1619      -3.71968             0       25.6054       19.0803             0       105.189             0             0      0.214998   1.87734e-05      0.065033        113390        103699    5.1597e+06   3.43964e-05
    0.0317367       292.595        292.55       492.275       10.1558       5.70515             0        3.8996      -3.82127             0       25.5475       18.7716             0       106.219             0             0      0.214792    2.1162e-05      0.065906        113385        103698   5.15924e+06   3.87728e-05
    0.0319044        292.72       292.379       454.842       9.95007        5.7076             0       3.63731      -3.92286             0       25.4897       18.4629             0       107.249             0             0      0.214585   2.35507e-05      0.066779        113380        103697   5.15878e+06   4.31492e-05
    0.0320721       292.947       292.228       423.536       9.83651       5.80939             0       3.38384      -4.01773             0       25.5319       18.2025             0       108.181             0             0      0.214322    2.6922e-05     0.0678911        113375        103696    5.1578e+06    4.9326e-05
    0.0322397       293.309       292.104       400.357       9.84526       6.04295             0       3.14207       -4.1037             0       25.7069       18.0063             0       108.986             0             0      0.213982   3.15967e-05     0.0693202        113370        103695   5.15613e+06    5.7891e-05
    0.0324074        293.67        291.98       377.177       9.85401       6.27651             0       2.90031      -4.18966             0       25.8818       17.8101             0        109.79             0             0      0.213642   3.62714e-05     0.0707493        113365        103695   5.15446e+06   6.64559e-05
    0.0325751       294.031       291.857       353.998       9.86275       6.51007             0       2.65855      -4.27562             0       26.0568       17.6139             0       110.594             0             0      0.213302   4.09461e-05     0.0721784        113361        103694   5.15279e+06   7.50209e-05
    0.0327427       294.392       291.733       330.819        9.8715       6.74363             0       2.41679      -4.36158             0       26.2318       17.4178             0       111.398             0             0      0.212963   4.56208e-05     0.0736075        113356        103693   5.15112e+06   8.35858e-05
    0.0329104       294.754       291.609       307.639       9.88025       6.97719             0       2.17502      -4.44754             0       26.4067       17.2216             0       112.203             0             0      0.212623   5.02955e-05     0.0750366        113351        103692   5.14945e+06   9.21508e-05
    0.0330781       295.263       291.503       288.617       9.91051       7.25117             0       1.94286      -4.52613             0       26.5967       17.0966             0       112.908             0             0      0.212302   5.57339e-05     0.0763757        113347        103692   5.14753e+06   0.000102115
    0.0332457       295.942       291.417       274.364       9.96546       7.57153             0       1.72172      -4.59626             0       26.8037       17.0533             0         113.5             0             0      0.212003   6.20486e-05     0.0776115        113344        103691   5.14533e+06   0.000113685
    0.0334134       296.621       291.331       260.111       10.0204       7.89188             0       1.50058      -4.66638             0       27.0108         17.01             0       114.091             0             0      0.211704   6.83633e-05     0.0788473        113340        103691   5.14313e+06   0.000125254
    0.0335811         297.3       291.245       245.859       10.0754       8.21224             0       1.27943      -4.73651             0       27.2178       16.9668             0       114.683             0             0      0.211405    7.4678e-05     0.0800831        113337        103690   5.14093e+06   0.000136824
    0.0337487       297.979       291.159       231.606       10.1303        8.5326             0       1.05829      -4.80663             0       27.4249       16.9235             0       115.274             0             0      0.211105   8.09927e-05     0.0813189        113333        103690   5.13873e+06   0.000148394
    0.0339164       298.659       291.073       217.353       10.1853       8.85296             0      0.837145      -4.87676             0        27.632       16.8802             0       115.866             0             0      0.210806   8.73074e-05     0.0825547        113330        103689   5.13653e+06   0.000159963
    0.0340841       299.335       291.001       205.864        10.206       9.22414             0      0.626666      -4.93724             0        27.779       16.9308             0       116.398             0             0      0.210573   9.31481e-05     0.0835109        113326        103689   5.13345e+06   0.000170665
    0.0342518       300.009       290.941       197.122       10.1926       9.64584             0       0.42679      -4.98815             0       27.8664       17.0746             0       116.871             0             0      0.210404   9.85177e-05     0.0841893        113322        103689   5.12949e+06   0.000180503
    0.0344194       300.682       290.882        188.38       10.1793       10.0675             0      0.226913      -5.03905             0       27.9538       17.2184             0       117.344             0             0      0.210235   0.000103887     0.0848677        113319        103689   5.12553e+06   0.000190341
    0.0345871       301.356       290.823       179.639       10.1659       10.4892             0     0.0270365      -5.08995             0       28.0412       17.3622             0       117.817             0             0      0.210066   0.000109257      0.085546        113315        103688   5.12158e+06   0.000200179
    0.0347548        302.03       290.764       170.897       10.1526       10.9109             0      -0.17284      -5.14085             0       28.1287        17.506             0       118.291             0             0      0.209898   0.000114627     0.0862244        113311        103688   5.11762e+06   0.000210017
    0.0349224       302.703       290.705       162.155       10.1393       11.3326             0     -0.372717      -5.19175             0       28.2161       17.6498             0       118.764             0             0      0.209729   0.000119996     0.0869028        113307        103688   5.11366e+06   0.000219855
    0.0350901         303.2       290.656       155.215       10.1064       11.7364             0     -0.562728      -5.23375             0       28.2374       17.8282             0       119.058             0             0       0.20962   0.000123927     0.0873373        113304        103688   5.10912e+06   0.000227057
    0.0352578       303.545       290.614       149.827       10.0568       12.1247             0     -0.744244      -5.26808             0       28.2018       18.0363             0       119.198             0             0      0.209562   0.000126619     0.0875618        113300        103688   5.10408e+06   0.000231989