#           y             T         TMean   TPrime2Mean           U_x           U_y           U_z       UMean_x       UMean_y       UMean_z UPrime2Mea... UPrime2Mea... UPrime2Mea... UPrime2Mea... UPrime2Mea... UPrime2Mea...            O2           H2O          C3H8             p         pMean   pPrime2Mean           CO2
  1.11022e-19       337.823       288.825       5.84419       64.3418  -2.20686e-16             0       15.0652   1.83816e-18             0         139.8   1.16685e-17             0    1.9402e-17             0             0      0.172234     0.0184525     0.0617372        112560        103556   2.80339e+06     0.0338084
  0.000500501       403.374       289.169       73.9817       65.5444     -0.994878             0       15.0259    0.00828664             0       139.533     0.0526028             0     0.0874661             0             0      0.153058     0.0264586     0.0629292        112574        103555   2.80314e+06      0.048477
     0.001001       469.359       289.518       150.595       66.7554      -1.99047             0       14.9865     0.0165834             0       139.273      0.105912             0      0.175019             0             0      0.133834     0.0344861      0.064108        112588        103555   2.80289e+06     0.0631849
    0.0015015       751.983       292.624       4456.58       72.2176      -3.34262             0       14.9281     0.0299101             0       142.312      0.511847             0       0.30611             0             0     0.0908925      0.053201     0.0587018        112574        103555   2.80195e+06     0.0974742
     0.002002       1034.64       295.731       8767.48       77.6962      -4.69295             0       14.8698     0.0432876             0       145.378      0.921507             0      0.438531             0             0     0.0480269     0.0718841     0.0532927        112561        103555     2.801e+06      0.131705
    0.0025025       1326.21        299.28       14300.5       87.2503      -5.59251             0       14.8589     0.0693173             0       155.118       2.25873             0      0.902176             0             0     0.0241018     0.0826193     0.0471197        112540        103555   2.79981e+06      0.151374
     0.003003       1616.46       302.814       19806.7       96.7877      -6.49703             0       14.8483     0.0952857             0        164.89       3.59746             0       1.36694             0             0   0.000319304     0.0932884     0.0410045        112519        103554   2.79864e+06      0.170922
    0.0035035       1689.75        303.63       20860.6       103.551      -8.22277             0       14.8729      0.111092             0       179.889       5.18669             0        2.0167             0             0     0.0001594     0.0930208     0.0444485        112516        103554   2.79922e+06      0.170431
     0.004004       1762.33        304.44       21901.9       110.286      -9.94064             0       14.8972      0.126843             0       194.845       6.77119             0       2.66665             0             0   7.72642e-07     0.0927495     0.0479242        112514        103554    2.7998e+06      0.169934
    0.0045045       1748.67       304.389       21396.1       113.484      -10.6832             0        14.892      0.135904             0       204.538       7.76947             0       3.34004             0             0   3.85085e-07     0.0920293     0.0553195        112506        103554   2.79891e+06      0.168615
   0.00500501       1734.88       304.336       20889.5       116.668       -11.422             0       14.8862      0.144997             0        214.11       8.75471             0         4.009             0             0   1.39683e-09     0.0913078      0.062728        112498        103553   2.79801e+06      0.167293
   0.00550551       1709.54       304.126       20302.3       118.418      -11.8002             0       14.8152      0.157217             0       211.644       8.44958             0       4.23893             0             0   6.95308e-10     0.0904589     0.0714418        112500        103553   2.79638e+06      0.165738
   0.00600601       1684.06       303.899       19689.6       120.142      -12.1744             0       14.7439      0.169553             0       209.079       8.14859             0       4.46698             0             0     2.265e-12     0.0896064      0.080193        112500        103552   2.79471e+06      0.164176
   0.00650651       1647.37       302.199       16976.2       119.723      -12.2136             0       14.6365      0.191343             0       198.338       8.18881             0       4.54035             0             0   7.04353e-12     0.0884528     0.0920342        112495        103551   2.79044e+06      0.162062
   0.00700701        1610.7       300.495       14263.1       119.294      -12.2507             0       14.5291      0.213033             0       187.602       8.23175             0       4.61791             0             0   1.71106e-11     0.0872988      0.103879        112489        103551   2.78617e+06      0.159948
   0.00750751       1574.93       298.608       11584.8       118.273      -12.1355             0       14.4243       0.22759             0       177.213       8.46686             0       4.99142             0             0   3.99645e-10     0.0861193      0.115985        112480        103550   2.78107e+06      0.157787
   0.00800801       1539.43       296.742       8943.02       117.255       -12.028             0       14.3201       0.24205             0       166.947       8.69835             0       5.36218             0             0   1.06232e-09     0.0849475      0.128012        112470        103549   2.77604e+06       0.15564
   0.00850851       1520.86       296.265       8553.44       116.515      -12.3956             0       14.2551      0.250553             0       164.181       8.70665             0       5.56474             0             0   1.89537e-08     0.0842475      0.135195        112450        103549   2.77573e+06      0.154357
   0.00900901       1502.41       295.787       8160.03       115.758      -12.7667             0       14.1904      0.258981             0        161.43       8.70842             0       5.76938             0             0   4.67763e-08      0.083554      0.142312        112430        103548   2.77541e+06      0.153086
   0.00950951       1490.77       295.259       7557.36       114.148      -13.3333             0       14.1434      0.263354             0       159.513       8.35454             0       6.08729             0             0   6.16402e-07     0.0832157       0.14578        112407        103548   2.77496e+06      0.152467
      0.01001       1479.12       294.723       6942.56       112.487      -13.9083             0       14.0961      0.267701             0       157.534       8.00363             0       6.40898             0             0   1.47577e-06      0.082882      0.149201        112383        103547   2.77447e+06      0.151855
    0.0105105       1467.38        293.81       5733.29       108.323      -14.8955             0       14.0379       0.27081             0       152.451       7.79833             0       6.91564             0             0   1.65326e-05     0.0827736      0.150248        112346        103546   2.77263e+06      0.151657
     0.011011        1455.4       292.898       4527.08       104.116      -15.8795             0       13.9798      0.273868             0       147.366       7.59411             0       7.42402             0             0   4.37103e-05     0.0826619      0.151276        112310        103546   2.77077e+06      0.151452
    0.0115115       1432.57        292.06       3456.86       98.0323       -16.722             0        13.926      0.274713             0       142.238        7.4376             0       8.00908             0             0   0.000609722     0.0824036      0.151466        112301        103545    2.7687e+06      0.150979
     0.012012       1407.06       291.228        2396.5       91.9042      -17.5072             0       13.8724      0.275497             0       137.132       7.27965             0       8.59501             0             0    0.00150656     0.0819974      0.151736        112291        103544   2.76662e+06      0.150234
    0.0125125       1272.71       290.683        1737.7       83.9712      -15.9626             0       13.8268      0.273804             0       132.911       7.06301             0       9.21625             0             0     0.0158571     0.0755766      0.155253        112284        103543   2.76394e+06       0.13847
     0.013013       1135.67       290.141        1085.2       76.0535      -14.4037             0       13.7812      0.272119             0       128.722       6.85096             0       9.83846             0             0     0.0305624     0.0689971      0.158857        112277        103542   2.76124e+06      0.126416
    0.0135135        898.11       289.717       668.676       68.7124      -12.3055             0       13.7372      0.270786             0       125.709       6.81038             0       10.4967             0             0     0.0585575     0.0564728      0.165703        112286        103541   2.75827e+06      0.103469
     0.014014        662.99         289.3       260.296       61.5122      -10.2421             0        13.693      0.269529             0       122.717       6.77097             0       11.1547             0             0     0.0864934     0.0439777      0.172507        112298        103540   2.75531e+06     0.0805753
    0.0145145       512.772       289.085       134.653       59.2024      -9.38993             0       13.6385      0.270873             0       120.451        6.7723             0       11.8045             0             0      0.112372     0.0324972      0.177842        112359        103539   2.75281e+06     0.0595409
     0.015015       366.027       288.876       12.5919       56.9681      -8.53817             0       13.5834      0.272348             0       118.188       6.77582             0       12.4526             0             0       0.13798     0.0211417      0.183067        112420        103538   2.75031e+06     0.0387355
    0.0155155       331.606        288.83       6.33476       57.1717      -7.70074             0       13.5084      0.278038             0       116.058       6.84983             0       13.0443             0             0      0.154863     0.0138269      0.184749        112477        103537   2.74744e+06     0.0253335
     0.016016        298.17       288.786      0.276032        57.365      -6.88064             0       13.4328       0.28369             0       113.924       6.92147             0       13.6349             0             0      0.171424    0.00665958      0.186319        112534        103537   2.74456e+06     0.0122016
    0.0165165       294.514       288.782      0.220397       57.2481      -6.58484             0       13.3403      0.288181             0       111.649       6.92136             0        14.193             0             0      0.178248    0.00395038      0.184458        112590        103536   2.74126e+06    0.00723783
     0.017017       290.978       288.779      0.166696       57.1303      -6.29467             0       13.2473      0.292546             0       109.362       6.91872             0       14.7497             0             0      0.184914    0.00131303      0.182549        112645        103535   2.73794e+06    0.00240571
    0.0175175       290.874        288.78       0.16794       56.9882      -6.16444             0       13.1428      0.293338             0       106.754       6.84459             0       15.2692             0             0      0.187079   0.000717152      0.179252        112682        103534   2.73414e+06    0.00131396
     0.018018       290.774        288.78      0.169203        56.843      -6.03825             0       13.0378      0.294007             0       104.134        6.7677             0       15.7856             0             0      0.189196   0.000140396      0.175967        112720        103534   2.73034e+06   0.000257232
    0.0185185       290.794        288.78      0.170989        56.613      -6.02035             0       12.9216      0.291393             0       101.179       6.61711             0       16.2169             0             0      0.190029   7.55739e-05      0.173011        112758        103533   2.72628e+06   0.000138466
     0.019019       290.816       288.781       0.17276       56.3862      -6.00525             0       12.8051      0.288704             0       98.2212       6.46526             0        16.643             0             0      0.190851    1.3061e-05       0.17008        112796        103532   2.72222e+06   2.39301e-05
    0.0195195       290.849       288.781      0.174179       56.2408      -6.06127             0       12.6813      0.284101             0       95.1899       6.28149             0       16.9372             0             0       0.19139   9.00191e-06      0.167777        112834        103532   2.71813e+06   1.64932e-05
      0.02002       290.883       288.781      0.175553       56.0916       -6.1173             0       12.5576      0.279393             0       92.1655       6.09659             0       17.2256             0             0      0.191925   5.06559e-06      0.165494        112873        103531   2.71405e+06   9.28111e-06
    0.0205205       290.923       288.783      0.175818       55.8532      -6.17336             0       12.4337      0.272152             0       89.3034       5.88447             0       17.3741             0             0      0.192337    4.0747e-06      0.163709        112912        103531      2.71e+06    7.4656e-06
     0.021021       290.964       288.784      0.176034       55.6128         -6.23             0       12.3099       0.26482             0        86.452       5.67189             0        17.516             0             0      0.192743    3.0869e-06      0.161958        112951        103531   2.70597e+06   5.65577e-06
    0.0215215           291       288.786      0.175104       55.3265      -6.29967             0       12.1876      0.255394             0       83.8463       5.44888             0       17.5085             0             0      0.192973   2.16961e-06      0.160965        112985        103531   2.70214e+06   3.97512e-06
     0.022022       291.036       288.788      0.174151       55.0325      -6.36713             0       12.0651      0.245937             0       81.2511       5.22586             0       17.4937             0             0      0.193197   1.27601e-06      0.159999        113019        103531   2.69833e+06   2.33788e-06
    0.0225225       291.064        288.79      0.172673       54.5722      -6.38646             0       11.9406      0.235826             0       78.8842       5.00273             0       17.3225             0             0       0.19329   8.97052e-07      0.159601        113040        103531   2.69501e+06   1.64357e-06
     0.023023       291.092       288.793      0.171207       54.1073       -6.4048             0       11.8159       0.22574             0       76.5285        4.7804             0       17.1439             0             0       0.19338   5.27211e-07      0.159214        113060        103532   2.69172e+06   9.65948e-07
    0.0235235        291.11       288.795       0.16996       53.5476       -6.4028             0       11.6877      0.216177             0       74.4036       4.57474             0       16.8117             0             0      0.193414   3.46356e-07      0.159067        113069        103532    2.6891e+06   6.34589e-07
     0.024024       291.129       288.798      0.168738       52.9824      -6.39793             0       11.5596      0.206651             0       72.2889       4.37009             0       16.4727             0             0      0.193447   1.71526e-07      0.158924        113078        103532   2.68651e+06   3.14268e-07
    0.0245245        291.14       288.801      0.168022       52.3073      -6.33607             0       11.4301      0.197852             0       70.3787       4.18535             0        16.001             0             0      0.193457   1.16191e-07      0.158882        113077        103533   2.68462e+06   2.12883e-07
     0.025025        291.15       288.804      0.167309       51.6314      -6.27329             0        11.301      0.189105             0       68.4786       4.00219             0       15.5236             0             0      0.193466    6.2556e-08      0.158842        113077        103533   2.68278e+06   1.14614e-07
    0.0255255       291.154       288.807      0.166665       50.9425      -6.19287             0       11.1763      0.181372             0        66.769       3.84904             0         14.94             0             0      0.193469   4.12428e-08      0.158831        113073        103534    2.6818e+06   7.55645e-08
     0.026026       291.157       288.811      0.166004       50.2541      -6.11069             0       11.0523      0.173711             0        65.072       3.69785             0       14.3526             0             0      0.193471   2.06458e-08      0.158821        113069        103535   2.68087e+06   3.78269e-08
    0.0265265       291.156       288.816      0.165036       49.5754      -5.99633             0       10.9401      0.167392             0       63.6053       3.58245             0       13.6974             0             0      0.193471   1.31045e-08      0.158824        113064        103536   2.68078e+06   2.40099e-08
     0.027027       291.155       288.821      0.164049       48.9015      -5.88202             0       10.8286      0.161143             0       62.1483       3.46867             0       13.0405             0             0       0.19347   5.85019e-09      0.158828        113059        103536   2.68073e+06   1.07186e-08
    0.0275275       291.149       288.828      0.162742       48.3111      -5.76859             0       10.7296      0.156105             0        60.863       3.38299             0       12.3533             0             0      0.193469   3.62381e-09      0.158832        113054        103537   2.68151e+06   6.63949e-09
     0.028028       291.142       288.835      0.161446       47.7271      -5.65468             0       10.6312      0.151115             0       59.5772       3.29764             0       11.6663             0             0      0.193468   1.48949e-09      0.158834        113049        103538   2.68233e+06   2.72902e-09
    0.0285285        291.13       288.843      0.160347       47.2512      -5.53263             0       10.5426      0.146937             0        58.284       3.21777             0       10.9821             0             0      0.193475   9.07118e-10      0.158804        113044        103539   2.68387e+06   1.66201e-09
     0.029029       291.117       288.851      0.159308       46.7847      -5.41098             0       10.4549      0.142836             0       56.9865         3.137             0       10.2997             0             0      0.193483   3.50817e-10      0.158771        113039        103539   2.68545e+06   6.42761e-10
    0.0295295       291.098       288.856      0.159232       46.4723      -5.29582             0       10.3794      0.139985             0       55.6189       3.04141             0       9.64817             0             0      0.193505   2.17916e-10      0.158675        113035        103540   2.68754e+06   3.99262e-10
      0.03003       291.077       288.861       0.15921       46.1696      -5.18045             0       10.3049      0.137243             0       54.2504       2.94437             0        9.0001             0             0      0.193528   9.10001e-11      0.158575        113031        103541   2.68966e+06   1.66729e-10
    0.0305305       291.051       288.862      0.160042       46.0191      -5.06188             0       10.2458      0.136207             0        52.866       2.82458             0       8.40622             0             0      0.193563   5.78507e-11      0.158423        113029        103542   2.69218e+06   1.05993e-10
     0.031031       291.025       288.864      0.160877       45.8768      -4.94357             0       10.1876      0.135257             0       51.4869       2.70402             0        7.8165             0             0      0.193598   2.61353e-11      0.158273        113027        103542   2.69472e+06   4.78847e-11
    0.0315315       291.002       288.863      0.161773       45.8609      -4.82928             0        10.144      0.135604             0       50.1887       2.57175             0       7.28978             0             0      0.193625   1.61141e-11      0.158155        113031        103543   2.69768e+06   2.95241e-11
     0.032032       290.979       288.862       0.16265       45.8485      -4.71511             0       10.1011      0.135972             0       48.9025       2.43967             0       6.76701             0             0       0.19365   6.58045e-12      0.158045        113034        103544   2.70065e+06   1.20566e-11
    0.0325325       290.965        288.86      0.163266       45.8892       -4.6028             0       10.0678      0.136654             0       47.7922       2.31047             0       6.30224             0             0      0.193647   4.17575e-12      0.158059        113043        103544   2.70388e+06   7.65075e-12
     0.033033       290.951       288.858      0.163855       45.9283      -4.49077             0       10.0346      0.137305             0       46.6954       2.18208             0       5.84097             0             0       0.19364   1.88267e-12      0.158086        113053        103545   2.70713e+06    3.4494e-12
    0.0335335       290.942       288.856       0.16406       45.9449      -4.38263             0       10.0041      0.137521             0       45.7891       2.06534             0       5.42935             0             0      0.193593   1.16922e-12      0.158293        113069        103545    2.7105e+06   2.14222e-12
     0.034034       290.934       288.853      0.164209       45.9564      -4.27435             0       9.97359      0.137689             0       44.8936       1.94925             0       5.02118             0             0      0.193541   4.92427e-13      0.158516        113085        103546   2.71388e+06   9.02218e-13
    0.0345345        290.93       288.849      0.163599       45.8975       -4.1641             0       9.94212      0.137191             0       44.1475       1.84211             0       4.66038             0             0      0.193441   3.18198e-13      0.158951        113107        103546   2.71721e+06   5.82998e-13
     0.035035       290.926       288.845      0.162942       45.8326      -4.05303             0       9.91058      0.136632             0       43.4078       1.73517             0       4.30291             0             0      0.193336   1.52427e-13      0.159408        113129        103547   2.72051e+06   2.79275e-13
    0.0355355       290.926       288.839      0.161678       45.6892      -3.93105             0       9.87814      0.135255             0       42.7529       1.63091             0       3.98971             0             0      0.193166   9.90321e-14       0.16015        113156        103547    2.7235e+06   1.81445e-13
     0.036036       290.925       288.834      0.160433        45.541      -3.80764             0       9.84574      0.133811             0       42.1015       1.52663             0       3.67937             0             0       0.19298   4.84196e-14      0.160957        113183        103548   2.72647e+06   8.87138e-14
    0.0365365       290.921       288.827      0.159456       45.3311      -3.66595             0       9.81392      0.131493             0       41.4955       1.42197             0       3.40581             0             0      0.192605   3.36726e-14      0.162587        113214        103548   2.72922e+06   6.16944e-14
     0.037037       290.918        288.82      0.158582       45.1178      -3.52246             0       9.78226      0.129115             0       40.8934       1.31756             0       3.13459             0             0      0.192223   1.96555e-14      0.164247        113244        103549   2.73194e+06   3.60125e-14
    0.0375375       290.913       288.814      0.159002       44.8621      -3.35639             0       9.75249      0.125985             0       40.3407       1.21615             0       2.89261             0             0      0.191754   1.47729e-14      0.166287        113276        103549   2.73445e+06   2.70668e-14
     0.038038       290.909       288.809      0.159511       44.6049       -3.1886             0       9.72283       0.12281             0       39.7912        1.1157             0       2.65266             0             0      0.191287   1.00267e-14      0.168316        113307        103549   2.73693e+06   1.83707e-14
    0.0385385       290.903       288.805      0.161109       44.3295      -2.99995             0       9.69441      0.119091             0       39.2814       1.02689             0       2.43729             0             0      0.190851   6.93745e-15      0.170212        113336        103549   2.73914e+06   1.27107e-14
     0.039039       290.897       288.802        0.1627       44.0553      -2.80999             0       9.66598      0.115349             0       38.7738      0.939818             0       2.22362             0             0      0.190421   4.01296e-15      0.172081        113364        103549   2.74134e+06   7.35249e-15
    0.0395395        290.89       288.799      0.164218       43.7946      -2.60434             0       9.63738      0.111346             0       38.2925      0.873217             0       2.03003             0             0      0.190061   3.03562e-15      0.173647        113386        103550   2.74328e+06   5.56182e-15
      0.04004       290.884       288.797      0.165689       43.5388      -2.39832             0       9.60877      0.107318             0       37.8155      0.808191             0       1.83788             0             0      0.189711   2.12891e-15       0.17517        113407        103550   2.74521e+06   3.90057e-15
    0.0405405        290.88       288.795      0.166629       43.3382      -2.18801             0       9.58018      0.103009             0       37.3874      0.761258             0       1.66242             0             0      0.189476   2.03449e-15      0.176193        113420        103550    2.7469e+06   3.72757e-15
     0.041041       290.876       288.794      0.167473       43.1446       -1.9782             0       9.55173     0.0986504             0       36.9673      0.714885             0       1.48837             0             0      0.189243   1.94989e-15      0.177204        113431        103550   2.74857e+06   3.57256e-15
    0.0415415       290.874       288.793      0.167248       43.0288      -1.77397             0       9.52504     0.0937346             0       36.6363      0.674782             0       1.33002             0             0      0.189041   1.97517e-15      0.178082        113434        103551   2.75009e+06   3.61889e-15
     0.042042       290.871       288.791      0.166953       42.9192      -1.57113             0       9.49862     0.0887568             0       36.3161      0.634621             0       1.17316             0             0      0.188842   2.00107e-15      0.178949        113436        103551   2.75159e+06   3.66634e-15
    0.0425425       290.865        288.79      0.165897       42.8774      -1.38335             0       9.47529     0.0831025             0       36.1138      0.593819             0       1.03246             0             0      0.188671   2.03369e-15      0.179692        113432        103551     2.753e+06   3.72609e-15
     0.043043        290.86       288.789      0.164926       42.8362      -1.19767             0       9.45206     0.0773853             0         35.92      0.552849             0      0.893282             0             0      0.188497   2.06705e-15      0.180449        113427        103551   2.75439e+06   3.78722e-15
    0.0435435       290.858        288.79       0.16485       42.8021      -1.03442             0       9.42994     0.0710003             0       35.8172      0.510093             0      0.770283             0             0      0.188286   2.10839e-15      0.181364        113418        103551   2.75558e+06   3.86296e-15
     0.044044       290.857        288.79      0.164988       42.7605     -0.873458             0       9.40733     0.0645409             0       35.7175      0.467241             0      0.648771             0             0      0.188073   2.15024e-15       0.18229        113410        103552   2.75674e+06   3.93964e-15
    0.0445445       290.865       288.791      0.167349       42.6418     -0.736256             0       9.37969     0.0573115             0       35.6505      0.423384             0      0.542677             0             0      0.187832   2.19736e-15       0.18334        113400        103552   2.75773e+06   4.02598e-15
     0.045045       290.873       288.792      0.169942       42.5091     -0.601476             0       9.35041     0.0500528             0       35.5832       0.38005             0      0.438238             0             0      0.187604   2.24349e-15       0.18433        113389        103552   2.75871e+06    4.1105e-15
    0.0455455       290.881       288.794      0.174876       42.2337     -0.491173             0       9.30454     0.0424976             0       35.5118      0.342007             0      0.350533             0             0      0.187515   2.27959e-15      0.184718        113379        103552   2.75955e+06   4.17664e-15