#           y             T         TMean   TPrime2Mean           U_x           U_y           U_z       UMean_x       UMean_y       UMean_z UPrime2Mea... UPrime2Mea... UPrime2Mea... UPrime2Mea... UPrime2Mea... UPrime2Mea...            O2           H2O          C3H8             p         pMean   pPrime2Mean           CO2
            0       289.316       288.181      0.308862        27.696             0             0       22.7508             0             0       6.01765             0             0             0             0             0          0.23   5.23227e-19   2.60408e-09        114476        103805    5.2481e+06   9.58649e-19
  0.000500501       289.314       288.181      0.308815       27.7128      0.166224             0       22.7529    -0.0167722             0       6.03543      0.141453             0      0.063667             0             0          0.23   5.44304e-18   1.83396e-08        114469        103805   5.24753e+06   9.97266e-18
     0.001001       289.313       288.181      0.308768       27.7296      0.332485             0        22.755    -0.0335367             0       6.05334      0.282915             0      0.127435             0             0          0.23   1.06867e-17   3.46189e-08        114463        103804   5.24695e+06     1.958e-17
    0.0015015        289.31       288.182      0.308998       27.7098      0.517201             0       22.7458    -0.0464626             0       6.14261      0.428317             0      0.241571             0             0          0.23   1.77532e-16   3.22313e-07        114446        103805   5.24685e+06   3.25272e-16
     0.002002       289.308       288.182      0.309228       27.6901      0.702019             0       22.7367    -0.0594147             0       6.23219      0.573892             0      0.356346             0             0          0.23   3.63753e-16   6.22758e-07        114429        103805   5.24675e+06   6.66464e-16
    0.0025025       289.303       288.182        0.3098       27.6988       0.91211             0       22.7324    -0.0789115             0       6.40026      0.762511             0      0.630208             0             0      0.229999   5.37442e-15   4.09845e-06        114408        103805    5.2459e+06   9.84693e-15
     0.003003       289.298       288.183      0.310436       27.7069       1.12273             0       22.7279    -0.0983255             0       6.56982      0.951156             0      0.904831             0             0      0.229998   1.12983e-14   7.75695e-06        114386        103805   5.24507e+06   2.07006e-14
    0.0035035       289.295       288.191       0.32162       27.6082       1.42122             0       22.7059     -0.104029             0       6.98527       1.14428             0       1.30565             0             0       0.22999   1.68517e-13   4.17024e-05        114368        103805   5.24609e+06   3.08754e-13
     0.004004       289.293       288.199        0.3356       27.5106       1.72062             0        22.684     -0.109843             0       7.40324       1.33903             0        1.7109             0             0      0.229982   3.56887e-13   7.72329e-05        114350        103805   5.24711e+06   6.53883e-13
    0.0045045       289.293       288.268      0.696223        27.546       2.13288             0       22.6755     -0.129302             0       8.13469       1.73655             0       2.66616             0             0      0.229929   4.40801e-12   0.000309311        114333        103805   5.24778e+06    8.0763e-12
   0.00500501       289.293       288.341       1.13355       27.5776       2.54645             0       22.6664     -0.148514             0       8.87421       2.13323             0       3.62892             0             0      0.229873   9.21842e-12   0.000553327        114316        103804   5.24849e+06   1.68899e-11
   0.00550551       289.328       288.742       9.16461       27.2324       3.09061             0       22.5994     -0.143384             0       10.4121       2.44575             0       5.33491             0             0      0.229545   8.91983e-11    0.00197933        114301        103803   5.25249e+06   1.63428e-10
   0.00600601       289.364       289.154       18.0963       26.8891       3.64023             0       22.5325     -0.138684             0       11.9457       2.76628             0       7.06938             0             0      0.229207   1.73913e-10    0.00344956        114287        103802   5.25652e+06   3.18641e-10
   0.00650651       289.513       290.522       101.182       26.7074       4.64002             0       22.4786      -0.16935             0       13.1274        3.7463             0       11.1485             0             0      0.228031   6.48449e-10    0.00856168        114266        103799   5.26191e+06   1.18808e-09
   0.00700701       289.666       291.921       190.496       26.5354        5.6374             0       22.4243     -0.198937             0       14.2865       4.72119             0       15.2453             0             0       0.22682   1.15415e-09     0.0138268        114244        103795   5.26739e+06   2.11462e-09
   0.00750751        290.13        295.55       718.453       27.0416       6.46567             0       22.3421     -0.152467             0       13.8539       5.33552             0       20.5899             0             0       0.22313   3.85486e-09     0.0298682        114221        103790   5.27824e+06   7.06283e-09
   0.00800801       290.628       299.334       1357.76        27.522       7.29776             0       22.2493     -0.106093             0       13.4164       5.90478             0       25.9458             0             0      0.219411   6.57856e-09     0.0460399        114197        103786   5.28906e+06   1.20532e-08
   0.00850851       293.206       312.618       8845.02        26.415       8.36444             0       21.4999     -0.065604             0        12.682       3.70167             0       31.9997             0             0      0.213848   1.07161e-08     0.0702272        114170        103779   5.29818e+06   1.96339e-08
   0.00900901         295.8       325.868       16317.8        25.298       9.43394             0       20.7526    -0.0229421             0       11.9398       1.48394             0       38.0376             0             0      0.208306   1.47895e-08     0.0943203        114142        103773    5.3069e+06   2.70971e-08
   0.00950951        299.22       337.322       22999.3       23.6419       10.6567             0       20.1251       0.13825             0       10.7722      -1.53161             0        43.195             0             0      0.203947    1.5364e-08      0.113272        114113        103768   5.29403e+06   2.81497e-08
      0.01001       302.624       348.582       29548.9       22.0038       11.8561             0       19.4936      0.302466             0       9.62423      -4.50198             0       48.2548             0             0      0.199617    1.5888e-08        0.1321        114083        103764   5.28089e+06   2.91097e-08
    0.0105105       305.279       350.312       29638.6       21.2469       11.9142             0        18.665      0.614897             0       9.43716      -5.25868             0       48.5277             0             0      0.196669   1.39384e-08      0.144915        114061        103767   5.25453e+06   2.55377e-08
     0.011011       307.953       352.031       29740.7       20.4913       11.9512             0       17.8214      0.924854             0       9.30265      -5.96215             0       48.7143             0             0      0.193671   1.20233e-08      0.157952        114038        103770    5.2282e+06   2.20289e-08
    0.0115115       311.523       353.278         30395       19.7952       11.0527             0       16.3154       1.12489             0       11.5049      -4.29924             0       45.0603             0             0      0.188401   1.16417e-08      0.180865        114022        103777   5.20326e+06   2.13297e-08
     0.012012       315.137       354.534       31059.5       19.0976       10.1358             0       14.8107       1.32208             0       13.7009      -2.61353             0       41.3774             0             0      0.182904    1.1343e-08      0.204766        114006        103783   5.17842e+06   2.07825e-08
    0.0125125       320.579       356.144       32142.2       18.3362       8.46822             0       13.3598       1.40369             0       15.6381   -0.00115738             0       36.5178             0             0      0.168157   1.44167e-08      0.268881        113992        103788   5.15768e+06    2.6414e-08
     0.013013        326.01       357.745       33218.7       17.5743       6.80711             0       11.9284       1.48201             0       17.5024       2.58007             0       31.6941             0             0      0.153196   1.74887e-08       0.33393        113978        103793   5.13717e+06   3.20426e-08
    0.0135135       331.078       359.036       34065.5       16.7972       5.38923             0       11.2285       1.43713             0       16.6336       3.99467             0       28.2181             0             0      0.130182   2.04999e-08      0.433991        113956        103795   5.12512e+06   3.75597e-08
     0.014014        336.03       360.268       34874.5       16.0316       3.99523             0       10.5503       1.39322             0        15.725       5.35515             0       24.7726             0             0       0.10732   2.33828e-08      0.533392        113935        103798   5.11321e+06   4.28416e-08
    0.0145145       336.947       359.439       34372.1       15.6656       3.43032             0       10.6286       1.38294             0         13.43       4.83712             0       22.3856             0             0     0.0897224   2.18112e-08      0.609902        113922        103799   5.10651e+06   3.99622e-08
     0.015015       337.757       358.558       33819.5       15.3234       2.87796             0       10.7083       1.37158             0       11.1916       4.32487             0       20.0224             0             0      0.072545   2.01593e-08      0.684587        113909        103799   5.09991e+06   3.69356e-08
    0.0155155       335.103       355.994       31642.2       15.7491       2.73099             0       10.8333       1.32526             0       10.7843       3.99963             0       18.4316             0             0      0.068945   1.59114e-08      0.700239        113903        103799   5.09652e+06   2.91527e-08
     0.016016       332.447       353.277       29376.1       16.1549       2.60064             0       10.9719       1.27689             0       10.4243       3.64862             0       16.8731             0             0     0.0656559   1.17085e-08      0.714539        113897        103798   5.09308e+06   2.14522e-08
    0.0165165       329.757       345.973         24424       15.9615       2.97283             0       11.5209       1.16617             0       11.4941       2.51801             0       16.2893             0             0     0.0717752   8.86488e-09      0.687934        113895        103797    5.0883e+06   1.62421e-08
     0.017017       327.024       338.574         19454       15.7834       3.34573             0       12.1236       1.05019             0       12.6043       1.31155             0       15.7128             0             0      0.078125   6.07747e-09      0.660326        113893        103796   5.08345e+06   1.11351e-08
    0.0175175        323.05       328.462       13978.1       16.0392       3.73888             0       14.2487      0.784704             0       14.8629      -2.05025             0       15.3423             0             0     0.0910209   4.88694e-09      0.604257        113899        103796   5.07652e+06   8.95378e-09
     0.018018        319.01       318.459       8592.97       16.3369       4.16192             0       16.3752      0.527102             0       17.1195      -5.37168             0       14.9859             0             0      0.103999   3.69647e-09      0.547832        113903        103795    5.0695e+06   6.77263e-09
    0.0185185        313.17       311.379       5640.02       17.7546       5.38529             0       18.5372      0.480579             0       19.3207      -7.61192             0       15.0102             0             0      0.119167   2.50777e-09      0.481883        113886        103793   5.05969e+06   4.59471e-09
     0.019019        307.38       304.422       2763.03       19.1564       6.58911             0       20.6458      0.437602             0        21.435      -9.76869             0       15.0326             0             0      0.134309   1.34448e-09      0.416047        113868        103792   5.04991e+06   2.46334e-09
    0.0195195        302.83       300.579       1809.01       20.1544       7.29813             0       21.4004      0.484382             0       21.3487      -9.81249             0       15.0053             0             0      0.148798   8.24396e-10      0.353052        113839        103792   5.04099e+06   1.51045e-09
      0.02002       298.353       296.805       880.966       21.1514       7.96747             0       22.1416      0.531476             0       21.2043      -9.83033             0       14.9871             0             0      0.163276   3.20048e-10      0.290105        113810        103791   5.03238e+06   5.86387e-10
    0.0205205       295.601       294.682        576.39       22.1214       7.68461             0       22.5595      0.586108             0        19.667      -9.22487             0       15.1864             0             0      0.177489   1.93388e-10      0.228307        113784        103791   5.03133e+06   3.54322e-10
     0.021021       292.912       292.598       280.248       23.0823       7.40783             0       22.9641      0.645188             0       18.1242      -8.58303             0       15.4348             0             0      0.191523   7.37529e-11       0.16729        113758        103791   5.03026e+06   1.35129e-10
    0.0215215       291.641       291.403       176.461       23.8359       7.26963             0       23.0658      0.805713             0       16.4582       -7.1113             0       16.8041             0             0      0.201464   1.14365e-10      0.124069        113734        103789   5.02865e+06   2.09538e-10
     0.022022       290.405       290.236       75.9434       24.5745       7.13664             0       23.1443      0.965421             0       14.8454      -5.58767             0       18.1864             0             0       0.21121   1.92588e-10     0.0816939        113709        103787   5.02704e+06   3.52858e-10
    0.0225225       289.924       289.652        46.453       24.9876        7.1166             0       22.7205       1.10736             0       14.3876      -2.93629             0       19.8522             0             0       0.21673   1.08799e-09     0.0576953        113688        103784   5.02532e+06    1.9934e-09
     0.023023        289.46       289.083       17.9864       25.3732       7.10266             0       22.2515       1.25471             0       14.1215     -0.178981             0       21.5126             0             0       0.22209   2.28309e-09     0.0343926        113668        103781   5.02354e+06   4.18305e-09
    0.0235235       289.344       288.846       10.7505       25.1897       7.21517             0        20.845        1.5144             0       17.8313       4.77539             0       23.0611             0             0      0.224129   9.69368e-09     0.0255249        113643        103776   5.02064e+06   1.77606e-08
     0.024024       289.242       288.617       3.78976       24.9157       7.29449             0       19.3766       1.76902             0       21.9715       9.73842             0        24.674             0             0      0.226063   1.94408e-08     0.0171184        113619        103772   5.01769e+06   3.56192e-08
    0.0245245       289.409       288.557       2.28501       22.8478       6.71558             0       16.6795       1.92317             0       34.6497       14.8733             0       27.5662             0             0      0.225892   7.55294e-08       0.01786        113591        103766   5.01384e+06   1.38384e-07
     0.025025       289.588         288.5      0.844618       20.7121       6.10338             0       13.9774       2.06054             0       47.4759        19.758             0       30.5011             0             0       0.22566   1.47286e-07     0.0188687        113562        103760   5.01018e+06   2.69856e-07
    0.0255255       289.995       288.513      0.627123       17.2874       4.85855             0       11.1824       1.87905             0       63.1122       19.8874             0       34.2469             0             0      0.224259    5.1674e-07      0.024954        113531        103753   5.00987e+06   9.46763e-07
     0.026026       290.404       288.526       0.42186       13.9022       3.61424             0       8.43127       1.68714             0       78.2668        19.808             0       37.9335             0             0      0.222808   9.53086e-07     0.0312612        113500        103745   5.00982e+06   1.74623e-06
    0.0265265       290.854       288.551      0.439612       11.2377       2.37954             0       6.48164        1.3054             0       84.6383       15.9235             0       40.5424             0             0      0.220423   2.60893e-06     0.0416119        113473        103737   5.01457e+06   4.78005e-06
     0.027027       291.298       288.577        0.4598       8.69103        1.1732             0       4.56669      0.918895             0       90.4914        12.004             0        43.091             0             0      0.218049   4.39568e-06     0.0519168        113447        103729   5.01941e+06   8.05371e-06
    0.0275275       291.647       288.603       0.52267        8.2074      0.463766             0       3.25906      0.448771             0       87.2625       7.47157             0       44.5853             0             0      0.215854   8.47559e-06     0.0614186        113434        103721   5.02598e+06   1.55289e-05
     0.028028       292.005       288.628      0.586487       7.81682     -0.225865             0        1.9797    -0.0203075             0         83.87       2.98858             0       46.0189             0             0      0.213717   1.29566e-05      0.070663        113423        103714   5.03241e+06   2.37389e-05
    0.0285285       292.512       288.651      0.666276       8.99478     -0.581604             0       1.17681     -0.471762             0       77.7198     -0.661847             0       46.4283             0             0      0.212562   2.41987e-05       0.07557        113432        103707   5.03647e+06   4.43366e-05
     0.029029       293.086       288.674      0.755995       10.1908     -0.945648             0      0.388276     -0.919683             0       71.6112       -4.2257             0       46.7753             0             0      0.211435   3.66535e-05     0.0803414        113442        103700    5.0401e+06   6.71561e-05
    0.0295295       294.747       288.705       1.00699       11.6799      -1.44459             0     -0.167047      -1.31023             0       66.1787      -6.38353             0       46.1099             0             0      0.210768   6.88032e-05     0.0829106        113466        103694   5.03695e+06    0.00012606
      0.03003       296.496       288.739       1.30832       13.1672      -1.95221             0      -0.71521      -1.69781             0       60.8446      -8.47185             0       45.3968             0             0      0.210092   0.000102229     0.0855083        113489        103689   5.03319e+06   0.000187303
    0.0305305       299.623       288.811       2.39828        14.626      -2.59597             0      -1.15121      -2.03895             0       57.0508       -9.4713             0       43.9354             0             0      0.209265   0.000155655      0.088553        113512        103685   5.01987e+06   0.000285188
     0.031031        302.74       288.885       3.55698       16.0699      -3.24608             0      -1.58279      -2.37531             0        53.419       -10.426             0       42.4473             0             0       0.20846   0.000208789     0.0915096        113534        103681   5.00582e+06    0.00038254
    0.0315315       305.692       288.988        5.7556       17.2879      -3.99234             0      -1.94753      -2.63928             0       52.2371      -10.7032             0       40.5557             0             0      0.207971   0.000257521     0.0931336        113542        103679   4.98068e+06   0.000471827
     0.032032       308.562       289.089        7.9633       18.4737      -4.74256             0      -2.30544      -2.89847             0       51.1665      -10.9652             0       38.6603             0             0      0.207526    0.00030486     0.0945818        113548        103677   4.95491e+06    0.00055856
    0.0325325        310.24       289.174       10.3038        19.189      -5.55064             0       -2.5636      -3.08794             0       51.7241      -11.0054             0       36.7105             0             0      0.207721   0.000331814     0.0934586        113537        103677   4.91998e+06   0.000607946
     0.033033        311.78       289.256        12.585       19.8508      -6.35316             0      -2.81453      -3.27232             0       52.2457      -11.0312             0       34.7682             0             0       0.20798    0.00035613      0.092083        113524        103677   4.88471e+06   0.000652497
    0.0335335       311.377       289.306       14.0263       19.7568      -7.07705             0      -2.96306      -3.38471             0       52.2568      -10.8525             0       32.9331             0             0      0.209149   0.000343102      0.087137        113496        103678    4.8447e+06   0.000628627
     0.034034       310.806       289.351       15.3415       19.6264      -7.79544             0      -3.10505      -3.49324             0       52.1577      -10.6451             0       31.1124             0             0      0.210351   0.000327218     0.0820714        113467        103679   4.80481e+06   0.000599524
    0.0345345       307.928       289.348       14.9285       18.9981      -8.43844             0      -3.15719      -3.54885             0       50.5485      -10.0443             0         29.49             0             0      0.212023   0.000272193     0.0753663        113430        103680   4.76661e+06   0.000498709
     0.035035       305.019        289.34       14.3799       18.3599      -9.07765             0      -3.20446      -3.60094             0       48.8485      -9.41646             0        27.885             0             0      0.213649   0.000216977     0.0688667        113392        103682   4.72882e+06   0.000397542
    0.0355355       301.682       289.273       12.0288       17.5902      -9.66646             0      -3.18699      -3.60636             0       45.9412       -8.4288             0       26.5121             0             0      0.214652   0.000159216     0.0650978        113344        103684   4.69666e+06   0.000291713
     0.036036       298.452       289.205       9.67275       16.7922      -10.2468             0      -3.16439      -3.60867             0       42.9812      -7.44273             0       25.1639             0             0      0.215613   0.000103355     0.0614939        113295        103685   4.66506e+06   0.000189365
    0.0365365         296.6        289.12       7.25216       15.6304      -10.7175             0      -3.07573      -3.57092             0       39.3415      -6.47716             0       24.1353             0             0      0.216026   7.19905e-05     0.0600183        113238        103687   4.64079e+06     0.0001319
     0.037037       294.842       289.037       4.92397       14.4125      -11.1725             0       -2.9836      -3.52947             0       35.6811      -5.50729             0       23.1336             0             0      0.216437   4.22046e-05     0.0585397        113182        103689    4.6172e+06   7.73266e-05
    0.0375375       294.263       288.986       3.75189        12.492      -11.4311             0      -2.84788      -3.44165             0       31.7618      -4.48354             0       22.4689             0             0      0.216809   3.21679e-05     0.0570242        113130        103690   4.60199e+06   5.89376e-05
     0.038038       293.716       288.938        2.6434       10.5297      -11.6804             0      -2.70944      -3.35041             0       27.9027      -3.43331             0       21.8176             0             0       0.21718   2.26295e-05     0.0555095        113080        103692   4.58771e+06   4.14615e-05
    0.0385385       293.545       288.925       2.30802       8.06001       -11.816             0      -2.53789      -3.21766             0       24.7745      -2.06114             0       21.3292             0             0      0.217534   1.91485e-05     0.0540049        113056        103693   4.58476e+06   3.50836e-05
     0.039039       293.385       288.913       1.99882       5.56654      -11.9457             0      -2.36419      -3.08221             0       21.7862     -0.665755             0       20.8351             0             0      0.217877    1.5833e-05     0.0525478        113035        103695   4.58281e+06   2.90089e-05
    0.0395395       293.352       288.921       1.99895       2.79175      -12.0038             0      -2.16501      -2.91494             0       20.4529       1.00413             0       20.2746             0             0      0.218086   1.44742e-05     0.0516523        113048        103697   4.59277e+06   2.65195e-05
      0.04004       293.329        288.93       2.02061    0.00588403      -12.0483             0      -1.96279      -2.74645             0       19.2674       2.67051             0       19.6934             0             0      0.218276   1.33096e-05     0.0508402        113064        103699   4.60369e+06   2.43857e-05
    0.0405405       293.432       288.955       2.28972      -2.90732      -11.9369             0      -1.72558      -2.56387             0       19.7814       4.29653             0       18.8757             0             0      0.218239   1.43775e-05     0.0509879        113113        103702   4.62576e+06   2.63423e-05
     0.041041       293.548       288.981       2.59617      -5.79718      -11.8059             0      -1.48431      -2.38071             0       20.3984       5.89724             0       18.0359             0             0      0.218175   1.58058e-05     0.0512504        113162        103705   4.64856e+06   2.89592e-05
    0.0415415       293.812       289.027       3.32052      -8.42564       -11.456             0      -1.19766      -2.19117             0       22.1687       7.21452             0       16.9486             0             0      0.217807   2.12698e-05     0.0527974        113226        103709   4.67962e+06   3.89702e-05
     0.042042       294.086       289.075       4.12708      -11.0049      -11.0929             0     -0.906789       -2.0021             0       23.9978       8.49589             0       15.8439             0             0      0.217417   2.75636e-05      0.054429        113290        103712   4.71112e+06   5.05017e-05
    0.0425425       294.468       289.148       5.83012      -13.0481      -10.5856             0      -0.56981      -1.81826             0       26.4673        9.3857             0       14.5505             0             0      0.216793   4.29069e-05     0.0569834        113349        103716   4.74739e+06   7.86135e-05
     0.043043       294.849       289.223       7.68748      -15.0417      -10.0709             0     -0.230933      -1.63549             0       28.9685        10.232             0       13.2496             0             0      0.216175   6.02707e-05     0.0594933        113408        103720   4.78375e+06   0.000110427
    0.0435435       295.224       289.325        11.185      -16.5092      -9.47688             0      0.128127       -1.4641             0       31.8071       10.6158             0       11.8685             0             0      0.215614   9.91083e-05      0.061531        113453        103725   4.82099e+06   0.000181585
     0.044044       295.607       289.428       14.8629      -17.9232      -8.87581             0      0.488141      -1.29408             0       34.6381       10.9563             0       10.4912             0             0      0.215071   0.000141619     0.0634571        113498        103729   4.85802e+06   0.000259473
    0.0445445       296.074       289.555       20.4103      -18.7837      -8.20157             0      0.858046      -1.13828             0       37.3904       10.8479             0       9.15411             0             0      0.214703   0.000222201      0.064227        113531        103733   4.89273e+06   0.000407114
     0.045045       296.609       289.684       26.1915      -19.5726      -7.51449             0       1.22612     -0.984268             0       40.0883       10.6985             0       7.82853             0             0      0.214328   0.000311433     0.0649446        113565        103738   4.92693e+06   0.000570604
    0.0455455       297.825       289.841       34.3361      -19.6375      -6.69769             0       1.57565     -0.848213             0       42.2365       10.1344             0       6.61956             0             0      0.213867    0.00048813     0.0651333        113594        103742   4.95602e+06   0.000894346