#           y             T         TMean   TPrime2Mean           U_x           U_y           U_z       UMean_x       UMean_y       UMean_z UPrime2Mea... UPrime2Mea... UPrime2Mea... UPrime2Mea... UPrime2Mea... UPrime2Mea...            O2           H2O          C3H8             p         pMean   pPrime2Mean           CO2
  1.11022e-19       290.503       288.353      0.759054        36.097  -8.50083e-15             0       21.5614  -1.43371e-15             0        39.304  -1.54729e-14             0   7.06914e-16             0             0      0.229965   3.28662e-06   0.000117779        111739        103763    4.5458e+06    6.0217e-06
  0.000500501       291.021       288.519       3.07697       36.1016     -0.284855             0       21.5635     0.0379405             0       39.3464     -0.305747             0       0.11813             0             0      0.229903   1.30096e-05   0.000290079        111726        103763   4.54548e+06   2.38359e-05
     0.001001       291.547       288.688       5.55023        36.106     -0.569559             0       21.5658     0.0758757             0       39.3899     -0.611568             0      0.236277             0             0      0.229839   2.29078e-05   0.000463775        111713        103763   4.54515e+06   4.19714e-05
    0.0015015       296.038       290.014       85.5407       36.0554     -0.779063             0       21.5906      0.111182             0       39.9957     -0.954588             0       0.36293             0             0      0.229409   0.000120291    0.00133451        111695        103762   4.54371e+06   0.000220396
     0.002002       300.593       291.357       170.493       36.0058     -0.987872             0       21.6156      0.146559             0       40.6074      -1.29707             0      0.490085             0             0      0.228972   0.000220219    0.00221113        111677        103762   4.54227e+06   0.000403482
    0.0025025       320.862       296.879       1490.88       36.1949      -1.02361             0       21.6916       0.19941             0       42.6954      -1.50643             0      0.742283             0             0      0.226702   0.000953743    0.00455414        111656        103762   4.54192e+06    0.00174743
     0.003003       341.454       302.524       2989.51       36.3856      -1.05841             0       21.7687      0.252253             0       44.8293      -1.71642             0      0.995245             0             0      0.224386    0.00170651    0.00689872        111636        103761   4.54156e+06    0.00312664
    0.0035035       415.343       328.471       34016.7       36.8399     -0.938039             0       22.0435      0.303611             0       54.5654      -2.03074             0       1.37482             0             0      0.214488     0.0056468     0.0095014        111628        103761    4.5399e+06      0.010346
     0.004004       490.982       354.456       65179.9       37.3163     -0.811027             0       22.3196      0.355154             0        64.378      -2.34509             0       1.75641             0             0      0.204349    0.00969298     0.0120631        111619        103760   4.53825e+06     0.0177593
    0.0045045       783.586       385.181        113213       40.5378      0.138813             0       22.7497       0.42965             0       83.6594      -2.66247             0       2.38696             0             0      0.164392     0.0268698    0.00953792        111627        103760   4.53818e+06     0.0492304
   0.00500501       1076.51       415.707        160982       43.7834       1.08234             0       23.1783      0.503348             0       102.918      -3.00307             0        3.0211             0             0      0.124362     0.0440736    0.00704873        111635        103759   4.53815e+06     0.0807511
   0.00550551       1400.91       426.486        182611       49.4251        1.4011             0       23.4575       0.49799             0       119.899      -5.64259             0       4.01036             0             0     0.0771966      0.063954    0.00811975        111636        103759   4.54136e+06      0.117176
   0.00600601       1722.36       437.147        203994       55.0403       1.71154             0       23.7334      0.492625             0       136.772      -8.28259             0       4.99942             0             0     0.0304142       0.08366    0.00931555        111637        103758   4.54453e+06      0.153281
   0.00650651       1801.47       438.175        205129       58.4773       1.33776             0       23.7311       0.48666             0       144.791      -10.9628             0       5.97156             0             0     0.0151559     0.0890033     0.0207856        111631        103757   4.54511e+06      0.163071
   0.00700701       1879.18       439.162        206163        61.885      0.960545             0       23.7259      0.480785             0       152.764       -13.642             0       6.94945             0             0   0.000110495     0.0942491     0.0323313        111625        103757   4.54569e+06      0.172682
   0.00750751       1858.24       437.249        200092       63.2278      0.341351             0       23.5149      0.481227             0       157.414      -16.2549             0       8.33104             0             0   5.49347e-05     0.0926215     0.0492001        111618        103756    4.5463e+06        0.1697
   0.00800801       1837.12       435.326        194000       64.5602     -0.281027             0       23.3018      0.481584             0       162.077      -18.8711             0       9.71411             0             0   2.61726e-07      0.090981     0.0661982        111612        103756   4.54688e+06      0.166694
   0.00850851       1804.94       432.858        186634       65.2423      -1.09922             0       22.9587      0.476746             0       167.491      -21.6859             0       11.1881             0             0   1.29812e-07     0.0885468     0.0911444        111606        103755   4.54605e+06      0.162234
   0.00900901       1772.44       430.422        179321       65.9026      -1.91426             0       22.6137      0.471681             0       172.886      -24.4989             0       12.6671             0             0   2.69576e-10     0.0860994      0.116226        111599        103754   4.54521e+06       0.15775
   0.00950951       1722.77       429.725        174901       65.3673      -2.55775             0       22.1707      0.454266             0       177.312      -27.2096             0       14.4272             0             0   1.33551e-10     0.0829374      0.148675        111592        103753   4.54372e+06      0.151957
      0.01001       1672.98       429.007        170457       64.8115      -3.19455             0       21.7268      0.436798             0       181.663      -29.9072             0       16.1891             0             0   2.43376e-13     0.0797702      0.181176        111584        103752   4.54223e+06      0.146154
    0.0105105       1618.05       427.337        164837       63.2585      -3.50377             0       21.2378      0.416736             0       182.322       -31.959             0        18.044             0             0   1.20441e-13     0.0763535      0.216248        111578        103751   4.54029e+06      0.139894
     0.011011       1563.27       425.625        159167       61.7054      -3.80811             0       20.7482      0.396427             0       182.914      -33.9964             0       19.8989             0             0   2.08193e-16     0.0729411      0.251274        111572        103750   4.53833e+06      0.133642
    0.0115115       1515.42        422.03        151247       60.1549      -3.89585             0       20.2295      0.365134             0        180.54      -35.3937             0       21.7506             0             0   1.02924e-16     0.0697255      0.284283        111567        103748   4.53585e+06       0.12775
     0.012012       1467.84       418.469        143412       58.6136        -3.982             0       19.7107      0.333758             0       178.195      -36.7915             0       23.6059             0             0    1.7885e-19     0.0665255      0.317132        111562        103747   4.53337e+06      0.121887
    0.0125125       1431.43       416.264        139011       57.4491      -4.00308             0       19.1837      0.298966             0       177.008       -38.207             0       25.6032             0             0   8.83332e-20       0.06396       0.34347        111561        103745   4.53081e+06      0.117187
     0.013013       1395.24       414.093        134694       56.2894      -4.02449             0       18.6584      0.263706             0       175.845      -39.6254             0       27.6111             0             0   1.67661e-22     0.0614176       0.36957        111561        103743   4.52823e+06      0.112528
    0.0135135       1367.32       413.216        133468       55.3075      -4.05803             0       18.1987      0.210908             0       175.539       -41.154             0       30.0162             0             0   8.27334e-23     0.0597424       0.38677        111567        103741   4.52495e+06      0.109459
     0.014014       1339.48       412.369        132309       54.3214      -4.09356             0       17.7415      0.157699             0        175.19      -42.6716             0       32.4242             0             0    1.8147e-25     0.0580927      0.403707        111572        103739   4.52166e+06      0.106437
    0.0145145       1314.52         412.6        133456       53.1902        -4.198             0       17.3694     0.0902372             0       173.319      -43.8021             0       34.9316             0             0   8.94743e-26     0.0573269      0.411572        111584        103737   4.51839e+06      0.105034
     0.015015       1289.82       412.848        134648       52.0596      -4.30255             0       16.9981      0.023227             0       171.401      -44.9052             0       37.4357             0             0   2.37208e-28     0.0565793       0.41925        111596        103734   4.51509e+06      0.103664
    0.0155155       1273.44       413.696        137288       50.9472      -4.41056             0       16.6512    -0.0291816             0        167.92      -45.1219             0       39.8295             0             0   1.88643e-28     0.0564165      0.420922        111608        103732   4.51082e+06      0.103366
     0.016016       1257.68       414.553        139952       49.8467      -4.51979             0       16.3066    -0.0817427             0       164.542      -45.3868             0       42.2479             0             0   1.82356e-28     0.0562697      0.422429        111621        103729   4.50654e+06      0.103097
    0.0165165       1260.52       415.662        143332       49.1043      -4.66569             0        16.033     -0.138919             0       164.289      -47.1103             0       45.4124             0             0   1.45497e-27     0.0566076      0.418954        111632        103727   4.50218e+06      0.103716
     0.017017       1264.01       416.776        146728       48.3789      -4.81464             0       15.7634     -0.196332             0        164.27      -48.9291             0       48.6349             0             0   2.97316e-27     0.0569704      0.415222        111644        103724   4.49775e+06       0.10438
    0.0175175       1285.83        418.05        150556       48.1366      -5.05002             0       15.6092     -0.260432             0       170.884      -53.4558             0       53.5017             0             0   1.14688e-26     0.0580419      0.404216        111656        103722   4.49116e+06      0.106344
     0.018018       1308.12       419.324        154395       47.9123      -5.29266             0       15.4565     -0.324376             0       177.676      -58.0532             0       58.4116             0             0   2.35073e-26     0.0591383      0.392955        111667        103719   4.48463e+06      0.108352
    0.0185185       1343.01       420.641        158524       48.1701      -5.72941             0       15.3469     -0.384126             0       189.255      -64.5405             0       64.4764             0             0   1.30415e-25     0.0608993      0.374874        111673        103717   4.47992e+06      0.111579
     0.019019       1377.96       421.913        162585       48.4421      -6.17506             0       15.2329     -0.442449             0       200.573      -70.9457             0       70.5485             0             0   4.72402e-25     0.0626623      0.356772        111679        103715   4.47523e+06      0.114809
    0.0195195       1414.45       422.056        164937       49.0731      -6.84621             0       15.0079     -0.464637             0       205.305      -75.2718             0       76.8056             0             0    6.7656e-24     0.0644771      0.338141        111683        103713   4.47109e+06      0.118134
      0.02002       1450.54       422.135        167177       49.7049      -7.52439             0       14.7774     -0.484242             0       209.583      -79.4402             0       83.0065             0             0   2.62032e-23     0.0662698      0.319735        111687        103711   4.46685e+06      0.121419
    0.0205205       1476.83        420.68        166719       50.3569      -8.37121             0       14.4148     -0.441835             0       202.954      -79.8227             0       87.8593             0             0   3.61107e-22     0.0675356      0.306741        111694        103709   4.46006e+06      0.123738
     0.021021       1502.66       419.205        166193       51.0063      -9.21689             0       14.0522     -0.397722             0       196.302      -80.1847             0       92.7297             0             0    1.4005e-21     0.0687832      0.293933        111702        103706    4.4535e+06      0.126024
    0.0215215       1517.84       417.279        164097       51.5974      -10.0368             0       13.6868     -0.314679             0       189.144      -80.0778             0       98.0005             0             0   1.85089e-20      0.069617      0.285373        111710        103705   4.45202e+06      0.127551
     0.022022       1532.83        415.36        161959       52.1911      -10.8614             0       13.3248     -0.227425             0       182.184      -79.9331             0       103.123             0             0   1.00357e-19     0.0704503      0.276818        111718        103703   4.45192e+06      0.129078
    0.0225225       1543.58       413.571        158922       52.8407       -11.789             0       13.0373    -0.0486922             0       179.514      -78.9688             0       105.031             0             0   1.58881e-18     0.0712735      0.268368        111724        103704   4.48195e+06      0.130586
     0.023023       1554.34       411.569        155563       53.4839      -12.7189             0       12.7435      0.140671             0       176.197       -77.471             0       106.524             0             0   8.63798e-18     0.0721085      0.259795        111730        103705   4.51444e+06      0.132116
    0.0235235        1565.4       405.171        145514       53.9939      -13.6948             0       12.3169       0.55049             0        159.47      -64.9065             0       99.4177             0             0   1.31011e-16     0.0731889      0.248705        111735        103710   4.59806e+06      0.134096
     0.024024       1576.53         398.5        135030       54.4818      -14.6684             0       11.8851      0.969033             0       142.292      -52.0312             0       92.2731             0             0   6.51595e-16     0.0742775       0.23753        111740        103716   4.68269e+06       0.13609
    0.0245245        1588.9       386.381        115926       54.5307      -15.5953             0       11.3498       1.56059             0       116.151      -32.9907             0       84.3711             0             0   9.07002e-15     0.0755307      0.224667        111743        103723   4.78742e+06      0.138386
     0.025025       1601.29       373.939         96490       54.5626      -16.5278             0       10.8231       2.14909             0       90.6042      -14.4254             0       76.7281             0             0   3.94669e-14     0.0767812       0.21183        111747        103731   4.88943e+06      0.140678
    0.0255255       1614.07       355.372       70735.5       54.2713      -17.5669             0       10.4597       2.67935             0       76.3601      -4.89037             0       74.0041             0             0   4.87455e-13     0.0779831      0.199493        111754        103734   4.93979e+06       0.14288
     0.026026       1626.89       337.042       45487.9       53.9746      -18.6137             0       10.1054       3.19863             0       62.5127       4.24087             0       71.4045             0             0   1.83712e-12     0.0791838      0.187169        111762        103737    4.9881e+06      0.145079
    0.0265265       1640.49       323.031       29482.7       53.5788      -19.8009             0       9.91638        3.5177             0       55.8975        6.0107             0        71.073             0             0    1.9625e-11     0.0803637      0.175058        111775        103737   4.99894e+06      0.147241
     0.027027       1653.79       309.618       14255.1       53.1625      -20.9708             0       9.73272       3.83347             0       49.5365       7.73711             0       70.7684             0             0   6.53583e-11     0.0815316       0.16307        111789        103738   5.00853e+06      0.149381
    0.0275275       1661.92       306.684       12649.3       52.3895      -21.8366             0       9.64241        4.0914             0        47.629       8.70285             0       70.9363             0             0   6.00653e-10     0.0824875      0.153259        111807        103737   4.99631e+06      0.151132
     0.028028       1669.54       303.826       11062.8        51.611      -22.6548             0       9.54872       4.34886             0       45.7602        9.6967             0       71.1269             0             0   1.75406e-09      0.083424      0.143646        111825        103736   4.98408e+06      0.152848
    0.0285285       1668.62       302.256       9802.93       50.7395      -22.6687             0       9.39821       4.59847             0       44.5451       11.1644             0        71.701             0             0    1.3327e-08      0.084035      0.137375        111848        103736    4.9718e+06      0.153968
     0.029029       1667.45       300.722       8566.36       49.8831      -22.6419             0       9.24583       4.84771             0       43.3505       12.6222             0       72.2535             0             0   2.54996e-08     0.0846364      0.131204        111871        103735   4.96001e+06       0.15507
    0.0295295       1662.39       299.755       7707.84        49.272      -21.9541             0       9.06326       5.09107             0       42.4881       13.9202             0       72.4557             0             0   4.74117e-08     0.0850807      0.126643        111894        103735   4.95635e+06      0.155884
      0.03003        1657.1       298.807       6864.22       48.6615      -21.2269             0       8.88081       5.33534             0       41.6768       15.2114             0       72.6604             0             0   6.96465e-08     0.0855142      0.122193        111917        103736   4.95194e+06      0.156678
    0.0305305       1648.42       298.168       6253.86       48.0602       -19.885             0       8.70027       5.59386             0       41.6663       16.3955             0       72.9026             0             0   9.69358e-08     0.0857787      0.119479        111944        103735   4.93596e+06      0.157163
     0.031031       1639.72       297.538       5649.69       47.4803      -18.5159             0       8.51867       5.85197             0        41.665       17.5719             0       73.1339             0             0   1.25918e-07     0.0860361      0.116837        111972        103735   4.91999e+06      0.157634
    0.0315315       1630.66       297.033       5139.21       47.2251      -16.7359             0       8.32104       6.10387             0        41.805       18.6316             0       73.2002             0             0   1.80504e-07     0.0861873      0.115285        112009        103735   4.90427e+06      0.157911
     0.032032        1621.9       296.535        4639.6       46.9831      -14.9728             0       8.12347       6.35518             0       41.9775       19.6654             0       73.2602             0             0   2.33199e-07     0.0863359      0.113759        112047        103735   4.88824e+06      0.158184
    0.0325325       1617.53       296.141       4299.07       46.9331      -13.4571             0       7.92654        6.5978             0       42.6247       20.3194             0       73.2289             0             0    2.5823e-07     0.0864479       0.11261        112089        103735   4.86759e+06      0.158389
     0.033033       1613.72       295.768        3982.5       46.8946      -11.9895             0       7.72922       6.83832             0       43.2984       20.9409             0       73.1902             0             0   2.77139e-07     0.0865634      0.111424        112131        103734   4.84706e+06        0.1586
    0.0335335       1618.04       295.705       4005.05       47.0181      -11.2011             0       7.52651       7.04905             0       44.3459       21.1009             0        73.047             0             0   2.09404e-07     0.0867303      0.109711        112175        103735   4.82834e+06      0.158906
     0.034034       1623.01       295.669       4055.38       47.1708      -10.4476             0       7.32358       7.25718             0       45.4216       21.2231             0       72.8833             0             0   1.41939e-07     0.0869037      0.107932        112218        103735   4.80969e+06      0.159224
    0.0345345       1636.99       296.016       4486.43       47.7245      -10.1728             0       7.11769        7.4297             0        46.882       20.8253             0       72.4379             0             0   7.81651e-08     0.0871647      0.105253        112255        103736   4.79204e+06      0.159702
     0.035035       1651.81        296.38        4945.2       48.3377      -9.89728             0       6.91089       7.59844             0       48.3648        20.388             0       71.9676             0             0   1.82047e-08     0.0874368       0.10246        112292        103736   4.77464e+06        0.1602
    0.0355355       1677.73       296.965       5772.23       49.7411      -9.61304             0       6.69196       7.71681             0       50.1453       19.4237             0       71.1672             0             0   8.90599e-09     0.0878562      0.098154        112320        103738   4.76046e+06      0.160969
     0.036036       1704.09       297.551       6611.26       51.1786      -9.35344             0       6.47144       7.83102             0       51.9421       18.4206             0       70.3319             0             0   2.66821e-10     0.0882855      0.093748        112348        103739   4.74644e+06      0.161755
    0.0365365       1736.13       298.131       7604.83       53.0556      -9.41128             0        6.2304       7.89165             0       53.9483       16.9161             0       69.0478             0             0   1.29047e-10     0.0888406     0.0880504        112375        103742   4.73448e+06      0.162772
     0.037037       1767.79       298.703        8595.8       54.8915      -9.49774             0       5.98648        7.9476             0       55.9475       15.3833             0       67.7238             0             0   1.41598e-12     0.0893907     0.0824039        112402        103744   4.72268e+06       0.16378
    0.0375375       1794.63       299.172       9554.13       56.2137      -9.94228             0       5.70651       7.94483             0       57.8604       13.4977             0       65.9003             0             0    6.9584e-13     0.0898785     0.0773984        112429        103747   4.71293e+06      0.164674
     0.038038       1820.54       299.633       10502.7       57.4866      -10.4074             0       5.42306       7.93742             0       59.7654       11.5967             0       64.0336             0             0   1.05579e-13     0.0903452      0.072609        112455        103749    4.7033e+06      0.165529
    0.0385385       1835.08       299.994       11332.5       58.1596      -11.1225             0       5.09726       7.87369             0        61.574       9.50841             0       61.6415             0             0   1.09432e-12     0.0905561     0.0704472        112477        103753   4.69509e+06      0.165916
     0.039039       1848.23        300.34       12132.8       58.7434      -11.8281             0       4.76762       7.80507             0       63.3635       7.42039             0       59.2127             0             0   1.15951e-11     0.0907364     0.0685996        112499        103756   4.68697e+06      0.166246
    0.0395395       1844.79       300.502       12582.9       58.2738       -12.421             0       4.39255       7.67865             0       64.9268       5.33544             0       56.3502             0             0   1.34532e-10     0.0905552      0.070465        112519        103761   4.68007e+06      0.165914
      0.04004       1839.19       300.643       12985.7       57.7127      -12.9908             0       4.01433       7.54758             0       66.4361       3.26952             0        53.454             0             0     1.374e-09     0.0903306     0.0727764        112540        103765   4.67328e+06      0.165502
    0.0405405       1808.84       300.522       12843.3       56.0992      -13.2946             0       3.59986       7.36293             0       67.3229       1.42245             0       50.1701             0             0   1.54536e-08     0.0896066     0.0802173        112560        103769   4.66785e+06      0.164176
     0.041041       1775.36       300.363       12633.8       54.3552      -13.5588             0       3.18427       7.17333             0       68.1237     -0.400124             0       46.8594             0             0    1.3136e-07     0.0888389     0.0881081        112581        103774   4.66257e+06      0.162769
    0.0415415       1706.98        299.78       11672.5       51.1505      -13.3813             0       2.75627       6.92826             0       67.9619       -1.9484             0       43.2475             0             0   1.38722e-06     0.0875798      0.101037        112609        103779   4.65886e+06      0.160463
     0.042042       1637.96        299.14       10631.7       47.9028      -13.1545             0       2.32941       6.67875             0       67.7307      -3.47159             0       39.6206             0             0    8.4878e-06     0.0863332      0.113813        112638        103784   4.65536e+06      0.158179
    0.0425425       1561.88       297.882       8722.88       44.1871      -12.3898             0       1.91496       6.38075             0       66.7427       -4.7212             0       35.8296             0             0   7.93236e-05     0.0852219      0.124916        112675        103789   4.65405e+06      0.156142
     0.043043       1484.74       296.605       6809.33       40.4172       -11.593             0        1.5021        6.0786             0       65.7423      -5.95128             0       32.0467             0             0   0.000488082     0.0840215      0.135464        112712        103794   4.65272e+06      0.153943
    0.0435435       1396.35       295.128        4845.1       36.0709      -10.4543             0       1.10614       5.73248             0       64.6088      -6.97367             0       28.3484             0             0    0.00448825     0.0818745      0.140105        112750        103799   4.65132e+06      0.150009
     0.044044       1296.66        293.68       2955.53        31.693      -9.23434             0      0.712791       5.38289             0       63.4655      -7.95866             0       24.6764             0             0     0.0103775     0.0789415      0.144601        112787        103805   4.65001e+06      0.144636
    0.0445445       1079.81       292.522       1839.72       26.9877      -7.17209             0      0.346437       4.99734             0       62.2215      -8.55599             0       21.2768             0             0     0.0358446     0.0678624      0.147593        112821        103809   4.64977e+06      0.124336
     0.045045        862.47       291.413        791.58       22.4888      -5.17524             0    -0.0147685       4.60702             0       60.9274      -9.09841             0       17.9121             0             0     0.0624188     0.0563447      0.150273        112854        103814   4.64955e+06      0.103234
    0.0455455       640.222       290.799        427.73       20.0766      -3.83969             0     -0.323907       4.16842             0       59.1278      -9.08557             0       14.9002             0             0      0.100187     0.0403937      0.149793        112884        103819    4.6495e+06     0.0740088