#           y             T         TMean   TPrime2Mean           U_x           U_y           U_z       UMean_x       UMean_y       UMean_z UPrime2Mea... UPrime2Mea... UPrime2Mea... UPrime2Mea... UPrime2Mea... UPrime2Mea...            O2           H2O          C3H8             p         pMean   pPrime2Mean           CO2
  1.11022e-19       289.779       288.227      0.487804       31.5464   4.75512e-16             0       23.4129  -7.09744e-16             0       13.9957  -1.50422e-15             0   8.09467e-17             0             0      0.229984   1.37656e-06   5.61241e-05        112698        103761   4.94603e+06   2.52211e-06
  0.000500501       289.822       288.235      0.504139        31.523      -0.22592             0       23.4116    0.00305071             0       13.9878     -0.180165             0     0.0473774             0             0      0.229928   8.48059e-06   0.000223945        112737        103761   4.94667e+06    1.5538e-05
     0.001001       289.867       288.242      0.522826       31.4998     -0.452277             0       23.4103    0.00610069             0         13.98     -0.360351             0     0.0948655             0             0      0.229872   1.57639e-05   0.000394186        112775        103761   4.94731e+06   2.88824e-05
    0.0015015        290.52        288.34       1.71567       31.5995     -0.896593             0       23.4157    0.00878933             0       14.0571     -0.550802             0      0.197614             0             0      0.229327   0.000112509    0.00177243        112829        103761   4.94649e+06   0.000206138
     0.002002       291.206       288.439       3.00858       31.6992       -1.3395             0        23.421     0.0114817             0       14.1343     -0.741198             0      0.300789             0             0       0.22877   0.000212291    0.00317002        112883        103760   4.94568e+06   0.000388957
    0.0025025       299.994        289.08       29.2183       31.8263      -1.43151             0        23.423     0.0150945             0       14.2392     -0.918045             0       0.51003             0             0       0.22532    0.00106814    0.00938395        112966        103760   4.94744e+06    0.00195703
     0.003003       309.063       289.733       56.8209       31.9567      -1.52331             0       23.4252     0.0187091             0       14.3462      -1.09542             0      0.720757             0             0      0.221817    0.00194256     0.0156362        113049        103760   4.94918e+06    0.00355912
    0.0035035       364.863       292.354       315.163       32.6524      -1.57884             0       23.4625     0.0226081             0       14.8022      -1.35967             0       1.17777             0             0      0.209595     0.0058927     0.0282282        112998        103759   4.94923e+06     0.0107965
     0.004004       422.898       295.036       613.127       33.3682      -1.63357             0       23.4999     0.0266592             0       15.2594      -1.62366             0       1.63663             0             0       0.19709    0.00997084      0.040738        112947        103759   4.94931e+06     0.0182684
    0.0045045       758.075       305.287       5824.19       36.5647      -1.58797             0       23.5477     0.0495661             0       15.8728      -1.85606             0       2.32334             0             0      0.149458     0.0299207     0.0430446        112885        103758   4.95333e+06     0.0548203
   0.00500501       1093.37       315.859       11573.9       39.7797      -1.50069             0       23.5968     0.0738128             0       16.5089      -2.07468             0       3.02358             0             0      0.101856     0.0498678     0.0452522        112824        103757   4.95732e+06     0.0913672
   0.00550551       1439.87       358.329       70646.7       44.8292       2.71216             0       23.7786      0.230685             0       19.3909     -0.929866             0       5.06362             0             0     0.0571301     0.0695505     0.0376673        112819        103756   4.95673e+06       0.12743
   0.00600601       1782.92       400.727        129708       49.8524       6.88603             0       23.9586      0.387308             0       22.2639      0.201062             0       7.09523             0             0     0.0128642     0.0890299     0.0301711        112815        103754   4.95608e+06      0.163119
   0.00650651       1841.82       437.195        187844       52.7039       7.85036             0       23.9879      0.523474             0       24.3959      0.188925             0       8.43253             0             0    0.00644806     0.0917674     0.0299708        112795        103752   4.95077e+06      0.168135
   0.00700701        1899.9       473.186        245213        55.544        8.7833             0       24.0133      0.657391             0       26.5212      0.166549             0       9.74454             0             0   0.000120861     0.0944617     0.0298266        112777        103750   4.94557e+06      0.173072
   0.00750751       1899.85       475.542        248651       57.5785       7.50502             0        23.769      0.632975             0       28.1726     -0.576879             0       9.27486             0             0   6.06165e-05     0.0941163     0.0336341        112819        103749   4.94811e+06      0.172439
   0.00800801        1899.8       477.862        252001       59.6041       6.25188             0       23.5198      0.609392             0       29.8736      -1.29101             0       8.81622             0             0   1.32544e-06     0.0937643     0.0375047        112860        103748   4.95062e+06      0.171794
   0.00850851       1899.85       478.015        249936       61.0775       6.54561             0       22.9718       0.63703             0       34.6204     -0.203124             0       9.03581             0             0   6.61522e-07     0.0930098     0.0452496        112889        103748   4.95113e+06      0.170411
   0.00900901       1899.66        478.17        247853       62.5097       6.82051             0       22.4158      0.664582             0       39.4221      0.884031             0       9.25291             0             0   9.47302e-09     0.0922388     0.0531641        112917        103747   4.95164e+06      0.168999
   0.00950951       1886.44       478.449        244744       61.6906       6.06886             0       21.4215       0.68744             0       47.2195       1.93154             0       9.33465             0             0   4.73069e-09     0.0905674     0.0703276        112934        103747    4.9523e+06      0.165936
      0.01001       1872.59       478.742        241656       60.8542       5.33365             0       20.4265      0.709724             0       55.0568       2.98295             0       9.41171             0             0   8.23794e-11     0.0888856     0.0875986        112951        103747   4.95295e+06      0.162855
    0.0105105       1827.91       479.699        239619       59.1724       5.40454             0       19.3974      0.703882             0       64.8468       4.22574             0       9.25961             0             0   4.09734e-11     0.0866924      0.110133        112931        103747   4.95316e+06      0.158837
     0.011011        1782.8       480.606        237506       57.4944       5.47433             0       18.3755      0.696749             0       74.5415       5.44209             0       9.11268             0             0   4.73169e-13     0.0844962      0.132697        112912        103747   4.95339e+06      0.154813
    0.0115115       1719.09       479.309        231977       55.9868       5.49522             0       17.6696      0.632251             0       80.0012       5.48344             0       9.19542             0             0    2.3615e-13     0.0821705      0.156612        112887        103747   4.95469e+06      0.150552
     0.012012       1655.56       477.943        226331       54.4853       5.51932             0       16.9725      0.567327             0       85.3275       5.49538             0       9.28306             0             0   6.02897e-15     0.0798352      0.180623        112861        103747   4.95601e+06      0.146273
    0.0125125       1599.94       473.786        215951       53.2287       5.67422             0       16.6335      0.485087             0       85.2316       4.31165             0       9.56967             0             0   5.64101e-14     0.0771129      0.208568        112837        103747   4.95799e+06      0.141285
     0.013013       1544.82        469.61        205567       51.9691        5.8126             0       16.3004      0.402955             0       85.0694       3.12606             0       9.86607             0             0    4.6067e-13     0.0743934      0.236483        112813        103747   4.95998e+06      0.136303
    0.0135135       1508.37       464.678        194992       50.5992       5.33231             0       16.1906      0.324849             0       82.4256       1.87079             0       10.5295             0             0   1.41218e-11     0.0717783      0.263286        112796        103746   4.96288e+06      0.131511
     0.014014        1472.2       459.704        184419       49.2355       4.84754             0       16.0871      0.247102             0       79.7598      0.613867             0       11.2012             0             0   1.47079e-10      0.069173      0.289987        112780        103745   4.96579e+06      0.126738
    0.0145145       1445.75       453.284        173948       48.0876       4.20719             0       16.1985      0.181835             0       76.3338     -0.700398             0         12.16             0             0   4.42133e-09     0.0669136      0.313159        112773        103743   4.96943e+06      0.122598
     0.015015       1419.22       446.849        163509       46.9454       3.56204             0       16.3165      0.116604             0       72.9045      -2.01185             0       13.1314             0             0   9.02666e-09     0.0646593      0.336279        112766        103742   4.97309e+06      0.118468
    0.0155155       1390.04       439.922        154118       45.9922       2.76137             0       16.6461     0.0525404             0       69.3665      -3.23218             0       14.5074             0             0   2.43374e-08     0.0625729       0.35769        112770        103740   4.97751e+06      0.114645
     0.016016       1360.78       433.015        144759       45.0391       1.96069             0       16.9827    -0.0110833             0       65.8363      -4.44211             0       15.8887             0             0   7.81282e-08     0.0605128      0.378831        112775        103737   4.98196e+06      0.110871
    0.0165165       1328.91       426.699        136363       44.0924       1.15947             0       17.5302    -0.0613911             0        62.541      -5.33731             0       17.4325             0             0   1.29594e-06     0.0592483      0.391806        112788        103734   4.98738e+06      0.108554
     0.017017       1296.78       420.386        127975       43.1197      0.363717             0       18.0853     -0.110042             0       59.2753      -6.18932             0       18.9785             0             0   9.52471e-06     0.0580188      0.404391        112801        103732   4.99283e+06      0.106301
    0.0175175       1257.31       414.168        119808       41.4091     -0.276684             0       18.8547     -0.111608             0       56.8483      -5.81406             0       20.5907             0             0   0.000216947     0.0577838      0.405904        112824        103728   4.99892e+06      0.105871
     0.018018        1214.5       407.951        111663       39.6412     -0.889066             0         19.62     -0.111711             0       54.4775      -5.40059             0       22.2057             0             0    0.00106593     0.0572823      0.407363        112847        103725   5.00507e+06      0.104952
    0.0185185       1082.34       401.772        104109       36.3392      -0.75114             0       20.2744    -0.0726393             0       53.6091      -3.96371             0       23.8982             0             0     0.0190946     0.0496469      0.407358        112882        103721    5.0129e+06     0.0909624
     0.019019       949.126       395.555       96536.9       33.0518     -0.611772             0       20.9149    -0.0341845             0       52.7573       -2.5193             0       25.5952             0             0     0.0375588     0.0418335      0.407286        112917        103716   5.02079e+06     0.0766468
    0.0195195       789.421       388.399       88499.5       30.1333     -0.435923             0       21.2068    -0.0113569             0       52.3275     -0.884376             0       27.4067             0             0     0.0670504     0.0295142      0.405521        112949        103712   5.02991e+06     0.0540754
      0.02002       633.662       381.238       80469.6       27.2851     -0.289564             0       21.4892     0.0110163             0       51.8502      0.745886             0       29.2287             0             0     0.0960858     0.0174355      0.403267        112982        103707   5.03907e+06     0.0319451
    0.0205205       572.606       373.966       72620.6       26.1252     -0.850952             0       21.5431     0.0224817             0       50.2315       2.26415             0        31.306             0             0      0.114175     0.0111335      0.389305        113015        103703   5.04884e+06     0.0203986
     0.021021       513.504       366.825       64930.6         24.98      -1.42303             0       21.5901     0.0334001             0       48.5718       3.77073             0       33.3935             0             0      0.131889    0.00501225      0.375123        113049        103698   5.05868e+06    0.00918337
    0.0215215       498.979       362.697       60866.7       24.1701      -2.23906             0       21.4781     0.0318422             0       45.9763       5.01091             0       35.7147             0             0      0.141017    0.00301581      0.355927        113093        103693   5.06989e+06    0.00552553
     0.022022       484.737         358.8       57110.7       23.3541      -3.03783             0       21.3591     0.0284804             0       43.3988       6.22786             0       38.0433             0             0      0.149865    0.00109998      0.337121        113136        103689   5.08093e+06    0.00201537
    0.0225225       476.647       359.919       60044.2       22.4054      -3.46173             0       21.0883    -0.0140754             0       41.2138       6.94015             0       40.5319             0             0      0.152626   0.000935447      0.326804        113170        103683   5.08841e+06    0.00171391
     0.023023        468.63       361.094       63074.4       21.4574      -3.85305             0       20.8074    -0.0584655             0       39.0896       7.63493             0       43.0231             0             0       0.15528   0.000792834      0.316728        113203        103678   5.09588e+06    0.00145262
    0.0235235       462.127       363.424       68110.4       20.5257      -3.56855             0       20.3158     -0.140897             0       38.2263       7.96657             0       45.5675             0             0       0.15571    0.00110481      0.311659        113241        103673   5.10334e+06    0.00202421
     0.024024       455.461       365.651       73002.3       19.6259       -3.2787             0       19.8195     -0.226362             0       37.4317       8.26617             0       48.1285             0             0      0.156216    0.00141131      0.306313        113279        103668   5.11076e+06    0.00258578
    0.0245245       445.539       365.811       75036.7       19.3601      -2.88272             0       19.2306     -0.371999             0       37.9983       7.93002             0       51.0156             0             0      0.158242    0.00160923      0.295473        113308        103664   5.11753e+06    0.00294842
     0.025025       435.086       365.911       76960.9       19.1628      -2.48204             0        18.645     -0.517808             0       38.5508       7.62852             0       53.8955             0             0      0.160404    0.00178781      0.284239        113335        103659   5.12425e+06     0.0032756
    0.0255255        414.53       364.863       76793.9       20.2701      -1.99215             0       18.1227     -0.666878             0       38.8353       7.98524             0       56.6379             0             0      0.165154    0.00159877      0.265525        113336        103654   5.13009e+06    0.00292924
     0.026026       394.662       363.875       76714.5       21.3917       -1.5487             0       17.6025     -0.813773             0       39.1429       8.40254             0       59.3694             0             0      0.169851    0.00145126      0.246617        113335        103649   5.13614e+06    0.00265897
    0.0265265       387.343       363.972       78231.3        22.774      -1.95199             0       17.1209      -0.92103             0       39.8697       9.92427             0       61.8997             0             0      0.173578    0.00206095      0.224157        113308        103643    5.1461e+06    0.00377604
     0.027027       398.498       364.239       80034.4        24.269      -2.21243             0       16.6376      -1.02793             0        40.746       11.5032             0       64.4955             0             0      0.175206    0.00360385       0.20124        113281        103637   5.15577e+06    0.00660293
    0.0275275       733.294       367.464       86852.9       27.7379     0.0297081             0       16.1246       -1.1286             0        44.243       14.0838             0       68.2389             0             0      0.140075     0.0214953      0.170322        113241        103631   5.16056e+06     0.0393833
     0.028028       1070.46       370.659         93652       31.4005       2.53632             0       15.6066      -1.23152             0       47.7898       16.6716             0       71.9908             0             0      0.104435     0.0395864       0.13957        113199        103624   5.16554e+06     0.0725296
    0.0285285       1447.65       373.348        100123       38.3273       9.50117             0       15.0043      -1.37235             0       52.1767       19.3817             0        75.886             0             0     0.0602052     0.0610436      0.111621        113140        103618   5.17388e+06      0.111843
     0.029029       1805.77        375.92        106396       45.1035       16.2142             0       14.3966      -1.51506             0        56.582       22.0679             0       79.7388             0             0     0.0180282     0.0815327     0.0846834        113082        103611   5.18268e+06      0.149383
    0.0295295       1854.34       376.592        109449       49.4335       18.8382             0       13.7021       -1.6884             0       61.2853       24.3676             0       82.9012             0             0    0.00919949      0.086296     0.0741798        113056        103605   5.19906e+06       0.15811
      0.03003          1900       377.238        112446       53.5309       21.2269             0       13.0019      -1.86189             0       65.8988       26.6443             0       86.0188             0             0   0.000877685     0.0908026     0.0641059        113031        103599   5.21523e+06      0.166367
    0.0305305          1900        377.48        114558       53.9833       19.9291             0       12.2118       -2.0376             0       69.1035        28.563             0       88.4359             0             0   0.000497928     0.0912885     0.0607644        113028        103593   5.22807e+06      0.167258
     0.031031          1900       377.707        116643       54.3581       18.6867             0       11.4164      -2.21206             0       72.2976       30.5105             0       90.8426             0             0   0.000140167     0.0917517     0.0575601        113023        103588   5.24066e+06      0.168106
    0.0315315          1900       377.708        118321       53.5582       18.2849             0       10.5404      -2.36754             0       75.3294       32.8932             0       93.0916             0             0   0.000115203     0.0918716     0.0564338        112996        103583   5.24959e+06      0.168326
     0.032032          1900       377.682        119933       52.6032       17.8476             0       9.65624      -2.52238             0       78.0303       35.1726             0       95.2992             0             0   9.10468e-05     0.0919857     0.0553637        112969        103578   5.25835e+06      0.168535
    0.0325325          1900       377.274        120589       49.3797       16.8925             0       8.65435      -2.66769             0       75.8924        35.941             0       96.9009             0             0    7.8711e-05     0.0920147     0.0551182        112946        103574   5.26472e+06      0.168588
     0.033033          1900       376.848        121193       46.1825        15.941             0       7.65175      -2.81275             0       73.6834       36.6603             0       98.4562             0             0   6.57969e-05     0.0920502     0.0548069        112922        103570   5.27109e+06      0.168653
    0.0335335          1900       376.168        121071       43.3555       15.0399             0       6.63912      -2.95406             0       70.4682       36.6861             0       99.3541             0             0   4.46998e-05     0.0921799      0.053567        112896        103568   5.27741e+06      0.168891
     0.034034          1900       375.485        120931        40.679       14.1703             0        5.6312      -3.09314             0       67.5022       36.7973             0       100.266             0             0   2.42947e-05     0.0923156     0.0522612        112870        103565   5.28386e+06      0.169139
    0.0345345          1900       374.743        120547       40.0642       13.7342             0       4.68798       -3.2016             0       67.9518       38.0787             0        101.37             0             0   1.33722e-05     0.0925352      0.050053        112854        103564   5.29199e+06      0.169542
     0.035035          1900       374.002        120158       39.5425       13.3177             0       3.74604      -3.30991             0       68.4071       39.3307             0        102.39             0             0   3.10531e-06     0.0927577     0.0478127        112838        103563   5.30022e+06      0.169949
    0.0355355          1900       373.269        119704       40.2589       13.1627             0       2.82107      -3.41616             0       68.9384       40.1926             0       102.299             0             0   1.54955e-06     0.0930179     0.0451472        112830        103563   5.30982e+06      0.170426
     0.036036          1900       372.537        119243       40.9776        13.043             0       1.89766      -3.52157             0       69.5284       41.0632             0       102.161             0             0   1.02272e-07      0.093283      0.042432        112822        103563   5.31922e+06      0.170912
    0.0365365          1900         371.8        118704       41.7259       13.3776             0       0.99427      -3.61623             0       70.8744       42.0452             0       101.423             0             0   5.31356e-08       0.09361     0.0390758        112819        103565   5.32615e+06      0.171511
     0.037037          1900       371.056        118145       42.3858       13.6828             0     0.0895558       -3.7107             0        72.141       42.9304             0       100.579             0             0   7.51935e-09     0.0939351     0.0357387        112817        103567   5.33283e+06      0.172107
    0.0375375          1900       370.227        117332        41.939       13.6218             0     -0.831675      -3.80283             0       72.4143       42.6048             0       98.3989             0             0   5.95017e-09     0.0942368     0.0326411        112821        103570   5.33628e+06      0.172659
     0.038038          1900       369.386        116491       41.4515       13.5107             0      -1.75162      -3.89456             0       72.7041       42.2085             0       96.0788             0             0   4.48244e-09     0.0945358     0.0295727        112825        103574   5.33952e+06      0.173207
    0.0385385          1900       368.408        115320       40.4706       12.7891             0      -2.65592      -3.98142             0       73.1941       40.9528             0       92.0568             0             0   4.24807e-09        0.0948     0.0268604        112832        103579   5.34019e+06      0.173691
     0.039039          1900       367.419        114126       39.4386       12.0279             0      -3.55677      -4.06629             0       73.6752       39.6496             0       87.9439             0             0   3.97366e-09     0.0950629     0.0241615        112839        103584   5.34056e+06      0.174173
    0.0395395          1900       366.299        112649       37.8026       10.7981             0      -4.41695      -4.12765             0        74.051       37.7846             0       82.7552             0             0   3.22591e-09     0.0953103      0.021622        112847        103591   5.33737e+06      0.174626
      0.04004       1899.98       365.171        111154        36.153       9.55544             0       -5.2689      -4.18622             0        74.474       35.9111             0       77.4969             0             0   2.50455e-09     0.0955556      0.019104        112854        103598   5.33399e+06      0.175076
    0.0405405       1899.85        363.95        109444       34.3468       8.16468             0      -6.02624      -4.21256             0        75.439       33.9385             0       71.4385             0             0   2.08683e-09     0.0957767      0.016834        112861        103607   5.32843e+06      0.175481
     0.041041       1899.71       362.723        107716       32.5705       6.79469             0      -6.77133      -4.23446             0       76.4396       31.9897             0       65.3827             0             0   1.68909e-09     0.0959896     0.0146485        112868        103615   5.32266e+06      0.175871
    0.0415415       1899.53       361.433        105789       31.1293       5.65728             0      -7.37931       -4.2066             0       77.8372       30.3081             0       59.3559             0             0   1.51511e-09     0.0961104     0.0134094        112871        103624   5.31448e+06      0.176092
     0.042042       1899.37       360.139        103846       29.7615          4.54             0      -7.97193       -4.1736             0       79.2734       28.6518             0       53.3551             0             0   1.32225e-09     0.0962207     0.0122765        112875        103634   5.30623e+06      0.176294
    0.0425425       1899.36       358.798        101726       29.1943       3.64219             0      -8.39696      -4.08475             0       81.1297       27.2715             0       47.6363             0             0   9.23582e-10     0.0962182     0.0123026        112876        103643   5.29706e+06       0.17629
     0.043043       1899.36        357.45       99590.4       28.6682       2.75866             0      -8.80586      -3.98963             0       83.0226       25.9124             0        41.981             0             0   5.36235e-10     0.0962036     0.0124525        112877        103652   5.28786e+06      0.176263
    0.0435435       1899.49       356.032       97294.3       28.5784       2.02693             0      -9.04323      -3.82796             0       85.3058       24.7781             0       37.0001             0             0    2.6923e-10     0.0960609     0.0139184        112879        103661   5.27827e+06      0.176001
     0.044044       1899.62       354.587       94963.1        28.558       1.31015             0      -9.26458      -3.66079             0       87.6481        23.649             0        32.081             0             0   2.48075e-11     0.0959108     0.0154624        112880        103669   5.26872e+06      0.175727
    0.0445445       1899.72       352.872       92267.7       29.2575      0.748356             0      -9.31973      -3.43659             0       90.6033       22.5749             0       27.8035             0             0   1.44267e-11     0.0956851     0.0178152        112884        103677    5.2596e+06      0.175313
     0.045045       1899.76       351.057       89449.9       29.9347      0.272643             0      -9.35734      -3.20695             0       93.7524       21.5282             0        23.591             0             0   3.43403e-11     0.0954587     0.0201769        112889        103685   5.25058e+06      0.174898
    0.0455455       1899.18       348.233       85395.5       30.3866      0.667272             0       -9.2175      -2.92234             0       98.8628       20.7584             0        20.037             0             0   3.60563e-10     0.0952262     0.0226278        112897        103692   5.24258e+06      0.174472