#           y             T         TMean   TPrime2Mean           U_x           U_y           U_z       UMean_x       UMean_y       UMean_z UPrime2Mea... UPrime2Mea... UPrime2Mea... UPrime2Mea... UPrime2Mea... UPrime2Mea...            O2           H2O          C3H8             p         pMean   pPrime2Mean           CO2
            0       315.666       288.963       13.3482       43.6518             0             0       17.3652             0             0       102.907             0             0             0             0             0      0.219332    0.00427521    0.00249737        112390        103697    3.7459e+06    0.00783298
  0.000500501       344.998       289.703       111.216       44.2005   -0.00783171             0       17.3765      0.011321             0       103.234     -0.169484             0     0.0848597             0             0      0.215347    0.00593843    0.00275088        112372        103697   3.74546e+06     0.0108803
     0.001001        374.49       290.449        212.76       44.7519     -0.015618             0       17.3879     0.0226482             0       103.568     -0.338839             0      0.169921             0             0      0.211353    0.00760542    0.00300397        112354        103697   3.74502e+06     0.0139345
    0.0015015       484.087       294.335       2148.92       46.6742  -0.000749152             0       17.4618     0.0370896             0       107.624     -0.443775             0      0.355381             0             0      0.202977     0.0111494    0.00304325        112314        103697   3.74546e+06     0.0204278
     0.002002       594.003       298.244       4121.65       48.6003     0.0146812             0       17.5362     0.0515354             0        111.72     -0.548362             0      0.541355             0             0      0.194579     0.0147031    0.00307886        112273        103697    3.7459e+06     0.0269389
    0.0025025       783.358       307.669       15198.8       51.4585      0.169921             0       17.7404      0.067094             0       125.934     -0.565833             0      0.855461             0             0      0.180655     0.0206863    0.00220166        112244        103696    3.7456e+06     0.0379011
     0.003003       972.697         317.1       26318.9       54.3234      0.324771             0       17.9452     0.0826245             0        140.21     -0.583949             0       1.17066             0             0      0.166668     0.0266962    0.00132573        112215        103696    3.7453e+06     0.0489124
    0.0035035       1159.44        327.39       44565.6         58.29      0.414941             0        18.243     0.0935071             0       164.563     -0.709002             0       1.66761             0             0      0.142171     0.0371368   0.000661521        112207        103695   3.74534e+06     0.0680415
     0.004004       1346.12       337.644         62768       62.2699      0.504348             0       18.5409      0.104334             0        188.95     -0.834912             0       2.16605             0             0      0.117593     0.0476111   2.74874e-06        112200        103695   3.74537e+06     0.0872325
    0.0045045       1523.91       343.403       75491.7       67.8999      0.499212             0       18.8395      0.108304             0       217.543      -1.06718             0       2.85055             0             0     0.0829804     0.0622705    1.8299e-05        112196        103694   3.74501e+06      0.114091
   0.00500501       1700.88        349.13       88133.4       73.5314      0.492728             0       19.1374      0.112288             0       246.101      -1.29779             0        3.5376             0             0     0.0484935     0.0768681   0.000119379        112192        103693   3.74465e+06      0.140837
   0.00550551       1795.81       351.655       92667.9       79.3134      0.352826             0       19.3648      0.117671             0       271.184      -1.36417             0       4.47591             0             0     0.0264831     0.0853567    0.00868795        112190        103692   3.74408e+06      0.156389
   0.00600601       1889.19       354.153       97135.9        85.069      0.212125             0       19.5907       0.12319             0       296.168      -1.42507             0       5.41643             0             0    0.00470845     0.0937259     0.0174571        112189        103691   3.74351e+06      0.171723
   0.00650651       1855.25        354.38         96136       88.6543    0.00561292             0        19.693      0.139956             0       312.972      -1.03513             0       6.53931             0             0    0.00234254      0.092267     0.0427379        112191        103690   3.74356e+06       0.16905
   0.00700701       1820.96       354.587       95099.6       92.1972     -0.201209             0       19.7932      0.156613             0       329.641     -0.654974             0       7.65596             0             0    9.6858e-06     0.0907758      0.068207        112194        103689   3.74362e+06      0.166318
   0.00750751        1762.1       353.439       91492.7        92.753     -0.429795             0       19.7506      0.165568             0       336.844       -0.9645             0       8.33393             0             0   4.80959e-06     0.0870081      0.106938        112197        103688   3.74452e+06      0.159415
   0.00800801       1703.25       352.293       87897.1       93.2791     -0.657997             0       19.7062      0.174481             0       343.926      -1.27938             0       9.00903             0             0   1.13141e-08     0.0832356      0.145719        112201        103687   3.74545e+06      0.152503
   0.00850851       1644.83       351.297       84991.1       91.9818      -0.86258             0       19.5561      0.180877             0       343.624      -1.92352             0       9.50808             0             0   5.61063e-09      0.079165      0.187543        112205        103686   3.74737e+06      0.145045
   0.00900901       1586.52       350.306         82105       90.6698      -1.06502             0        19.405      0.187336             0       343.244      -2.56621             0       10.0095             0             0   9.70641e-12     0.0751035      0.229275        112209        103686   3.74928e+06      0.137604
   0.00950951       1534.85       349.625       80301.8       88.5589      -1.15037             0       19.1994      0.197262             0       338.609      -3.12983             0       10.6421             0             0   4.80881e-12     0.0715346      0.265937        112209        103684   3.75048e+06      0.131065
      0.01001       1483.48        348.95       78517.8       86.4495      -1.23485             0       18.9934      0.207156             0        333.93       -3.6966             0       11.2737             0             0   9.07587e-15     0.0679874      0.302376        112209        103683   3.75168e+06      0.124566
    0.0105105       1446.71       348.572       77672.1       84.4129      -1.27634             0       18.7615      0.215442             0       327.116      -4.41821             0       11.8562             0             0   4.49268e-15     0.0654998      0.327914        112202        103682   3.75318e+06      0.120008
     0.011011       1410.47         348.2       76841.6       82.3903      -1.31764             0       18.5293      0.223799             0       320.308      -5.13843             0       12.4406             0             0   1.02064e-17     0.0630604      0.352957        112196        103681   3.75467e+06      0.115538
    0.0115115       1398.24        348.05       76688.4       80.9869      -1.35062             0       18.2853      0.235357             0       313.782      -5.79731             0       13.1122             0             0   5.04754e-18     0.0627628      0.355995        112183        103680   3.75573e+06      0.114993
     0.012012       1386.58       347.906       76550.5        79.588      -1.38377             0       18.0411      0.246925             0       307.281      -6.45872             0       13.7854             0             0    1.2296e-20     0.0625171        0.3585        112171        103679    3.7568e+06      0.114543
    0.0125125       1398.23       347.959       77030.4        78.367      -1.42405             0       17.7857      0.258941             0       301.773      -7.22273             0       14.5221             0             0   6.07414e-21     0.0643822       0.33933        112156        103677   3.75768e+06       0.11796
     0.013013       1410.37       348.018       77527.2       77.1496      -1.46523             0       17.5301      0.270941             0       296.263      -7.98531             0       15.2612             0             0   1.38777e-23     0.0662699      0.319928        112142        103676   3.75854e+06      0.121419
    0.0135135       1440.68       348.297       78660.8         76.07      -1.54015             0       17.2663      0.282337             0       290.713      -8.69454             0       16.0914             0             0   6.84775e-24      0.069006      0.291818        112130        103675   3.75846e+06      0.126432
     0.014014       1471.36       348.572       79794.5       75.0113      -1.61172             0       17.0022      0.293772             0       285.123      -9.39557             0       16.9213             0             0   1.44297e-26     0.0717391      0.263738        112118        103674   3.75835e+06      0.131439
    0.0145145       1515.56       348.713       80933.4       74.6825      -1.56718             0       16.7246      0.306554             0       278.104      -9.81184             0       17.7442             0             0   7.11168e-27      0.074367      0.236744        112113        103673   3.75719e+06      0.136254
     0.015015       1559.92       348.845       82062.8       74.3972      -1.51293             0       16.4467       0.31949             0        271.12      -10.2185             0       18.5617             0             0   1.29891e-29     0.0769824      0.209876        112108        103672   3.75603e+06      0.141046
    0.0155155       1609.64       348.717       82886.2       75.5235      -1.14473             0       16.1583      0.337443             0       265.237      -10.3161             0       19.2065             0             0   6.39454e-30     0.0791971      0.187124        112109        103671    3.7549e+06      0.145104
     0.016016       1659.23       348.586       83696.2         76.69     -0.760789             0       15.8701      0.355474             0       259.485      -10.4169             0       19.8474             0             0   1.08072e-32     0.0813974      0.164521        112110        103670   3.75378e+06      0.149135
    0.0165165       1705.09       348.338       84103.9        79.071     0.0993588             0       15.5877      0.375908             0       257.703      -10.6149             0       20.3733             0             0   5.31527e-33     0.0831598      0.146415        112114        103669   3.75313e+06      0.152364
     0.017017       1750.68       348.084       84489.6        81.421      0.952675             0       15.3054      0.396408             0        255.99      -10.8126             0        20.899             0             0   9.92542e-36     0.0849095       0.12844        112118        103669   3.75246e+06       0.15557
    0.0175175       1788.62       347.652       84246.5       82.8913       1.61188             0       15.0265      0.418813             0       256.248      -10.9994             0       21.4201             0             0   4.87978e-36     0.0863002      0.114154        112124        103668   3.75092e+06      0.158118
     0.018018       1826.13       347.217       83989.6       84.2762        2.2363             0       14.7469      0.441227             0       256.416      -11.1792             0       21.9354             0             0   1.55016e-38     0.0876755      0.100025        112129        103667   3.74939e+06      0.160638
    0.0185185       1852.14       346.703       83362.8       83.3725       1.92904             0       14.4489      0.463889             0       254.204      -11.1696             0       22.2947             0             0   7.61863e-39     0.0886403     0.0901134        112138        103667   3.74793e+06      0.162406
     0.019019       1877.54       346.194       82738.2       82.4226       1.59718             0         14.15      0.486472             0        251.85      -11.1586             0       22.6478             0             0    3.4542e-41     0.0895862     0.0803961        112147        103667   3.74647e+06      0.164139
    0.0195195       1887.52       345.825         82169       80.3033      0.642467             0       13.8303      0.507044             0       245.879      -11.1118             0       22.8412             0             0    1.6954e-41     0.0900527     0.0756047        112157        103667   3.74521e+06      0.164993
      0.02002       1897.15       345.461       81602.4       78.1858      -0.31462             0       13.5097      0.527716             0       239.788      -11.0584             0        23.029             0             0   6.80358e-44     0.0905095     0.0709119        112167        103666   3.74394e+06       0.16583
    0.0205205       1898.55       345.182       81099.6       76.1121       -1.3286             0       13.1695      0.550778             0       230.795      -10.8476             0       23.0839             0             0   3.33522e-44     0.0907356     0.0685888        112175        103666   3.74276e+06      0.166245
     0.021021       1899.81       344.905         80597       74.0479      -2.32937             0       12.8293      0.573955             0       221.743      -10.6399             0       23.1365             0             0   1.22588e-46      0.090959     0.0662948        112183        103666   3.74155e+06      0.166654
    0.0215215       1898.15       344.659         80098       72.2012      -3.02903             0       12.4876      0.599748             0       211.375      -10.5029             0       23.1386             0             0   5.99796e-47     0.0911176     0.0646656        112188        103666   3.73979e+06      0.166944
     0.022022       1896.38       344.411       79588.4       70.3637      -3.71293             0        12.147      0.625606             0       201.002      -10.3622             0       23.1329             0             0   1.23262e-49     0.0912748     0.0630509        112194        103666   3.73805e+06      0.167232
    0.0225225       1891.99       344.108       78848.5       68.7248      -4.05455             0       11.8306      0.652862             0       190.519      -10.1403             0       22.9603             0             0   6.02483e-50     0.0914015     0.0617498        112197        103667   3.73688e+06      0.167465
     0.023023       1887.59       343.799         78098       67.1049      -4.37067             0       11.5154      0.679954             0       180.077      -9.93796             0       22.7891             0             0   1.29865e-52     0.0915275     0.0604554        112201        103667   3.73568e+06      0.167695
    0.0235235       1883.16       343.378       77126.4       65.8783      -4.15822             0       11.2264      0.703631             0       170.485      -10.1424             0       22.6493             0             0   6.34125e-53     0.0916401     0.0592995        112202        103667   3.73376e+06      0.167902
     0.024024        1878.9       342.958       76167.9       64.7106      -3.90854             0       10.9385      0.727831             0       160.963      -10.3448             0        22.489             0             0   1.45827e-55     0.0917532     0.0581376        112204        103667    3.7319e+06      0.168109
    0.0245245       1877.89       342.583       75467.7       64.7104      -2.92039             0       10.6734      0.762406             0       152.821      -10.5083             0       21.9229             0             0   7.11347e-56      0.091878     0.0568558        112204        103668   3.73114e+06      0.168338
     0.025025       1877.08       342.169       74711.8       64.7868      -1.90941             0       10.4097      0.797259             0       144.802      -10.6595             0       21.3646             0             0   1.72648e-58     0.0920043     0.0555595        112203        103668   3.73034e+06      0.168569
    0.0255255       1879.98       341.032       72898.7       66.3175     -0.464473             0       10.1708      0.837387             0       139.115      -10.5779             0       20.9547             0             0   8.41346e-59     0.0921575     0.0539868        112200        103668   3.72884e+06       0.16885
     0.026026       1882.97       339.842       71009.8       67.8586       0.97074             0       9.93353      0.879615             0       133.607      -10.4221             0       20.5318             0             0   2.20715e-61     0.0923147     0.0523725        112197        103668   3.72745e+06      0.169138
    0.0265265       1887.48       337.682       67739.4       69.5873       2.22864             0         9.726      0.960133             0       131.358      -8.91577             0       19.8695             0             0   1.66504e-61     0.0925459     0.0499995        112192        103668    3.7281e+06      0.169561
     0.027027       1891.91       335.367       64220.4       71.2699          3.45             0       9.51949       1.04252             0       129.108      -7.34149             0       19.1762             0             0   6.31056e-61     0.0927787     0.0476096        112188        103668   3.72874e+06      0.169988
    0.0275275       1894.95       330.358       56345.4       72.1459       4.03146             0       9.33089       1.15773             0       126.832      -4.57697             0       17.9389             0             0   1.01836e-59     0.0930404     0.0449227        112186        103668   3.72931e+06      0.170467
     0.028028       1897.86       325.358       48511.2       72.9832       4.58688             0       9.14397       1.26991             0       124.474      -1.92942             0       16.7385             0             0   4.31624e-58     0.0932993     0.0422656        112185        103668   3.72981e+06      0.170942
    0.0285285       1898.76       320.538       41365.4       73.1699       4.70332             0       8.98523       1.33113             0       120.724      -1.25375             0        16.162             0             0   7.79631e-57     0.0935092     0.0401113        112185        103668    3.7292e+06      0.171326
     0.029029        1899.6       315.916       34563.9       73.3367       4.81571             0       8.83062        1.3907             0       117.039     -0.602137             0       15.6001             0             0   4.82206e-55     0.0937153     0.0379958        112185        103668   3.72866e+06      0.171704
    0.0295295       1899.55       314.513       33355.1       73.1817       4.86219             0       8.74288       1.42352             0       114.409     -0.341157             0       15.2766             0             0   8.54207e-54     0.0938602     0.0365086        112184        103668   3.72943e+06      0.171969
      0.03003       1899.41       313.151       32203.5         73.01        4.9126             0       8.65967        1.4557             0       111.831    -0.0615197             0       14.9615             0             0   5.61005e-52     0.0939983     0.0350911        112183        103668   3.73023e+06      0.172222
    0.0305305       1897.88       312.416       31947.5       72.5769       5.02452             0        8.6473       1.47775             0       110.085      0.510414             0       14.7756             0             0   9.64245e-51       0.09403     0.0347661        112182        103667   3.73177e+06       0.17228
     0.031031       1896.22       311.708         31721       72.1293       5.13495             0       8.63793       1.49884             0       108.351       1.06692             0       14.5907             0             0   6.32566e-49     0.0940591     0.0344669        112181        103667   3.73335e+06      0.172334
    0.0315315       1892.73       311.407       31941.6       71.4603       5.22295             0       8.67405       1.50527             0       106.787       1.38996             0       14.4217             0             0   1.05423e-47     0.0940504     0.0345568        112180        103667   3.73562e+06      0.172318
     0.032032        1889.1       311.124       32165.4       70.7917        5.3042             0       8.71082       1.51105             0       105.207       1.70033             0       14.2545             0             0   7.52118e-46     0.0940445     0.0346173        112179        103667   3.73782e+06      0.172307
    0.0325325       1883.56       311.105       32435.3       70.1292       5.28662             0       8.75726       1.50738             0       103.366       1.82532             0       14.1156             0             0   1.21943e-44     0.0940804     0.0342488        112177        103667   3.73903e+06      0.172373
     0.033033       1878.01       311.085       32694.3       69.4854       5.26015             0       8.80363       1.50333             0       101.522       1.93675             0       13.9796             0             0   9.09232e-43      0.094118     0.0338637        112175        103667   3.74025e+06      0.172442
    0.0335335       1872.19       311.053       32798.9       69.1049       5.10775             0         8.849       1.49382             0       99.6289        1.8563             0       13.8852             0             0   1.43388e-41     0.0941784     0.0332432        112172        103667   3.74162e+06      0.172552
     0.034034       1866.62       311.021       32898.1       68.7496       4.95141             0       8.89458       1.48417             0       97.7371       1.76957             0       13.7917             0             0   1.10541e-39     0.0942419     0.0325922        112168        103667   3.74294e+06      0.172669
    0.0345345        1864.5       310.977       32920.8       68.7391       4.74101             0       8.94309       1.47259             0       95.8665       1.59661             0       13.7117             0             0   1.69665e-38     0.0943461     0.0315223        112163        103667   3.74371e+06       0.17286
     0.035035        1862.7        310.93       32938.4       68.7483       4.52992             0       8.99229       1.46084             0       93.9866       1.41433             0       13.6316             0             0   1.32641e-36      0.094453     0.0304257        112157        103667   3.74449e+06      0.173055
    0.0355355       1865.36       310.843       32887.9       69.0189       4.30963             0       9.05064        1.4468             0       91.9831       1.10822             0       13.5511             0             0    1.9822e-35     0.0945944     0.0289745        112149        103667   3.74537e+06      0.173315
     0.036036       1868.18       310.752       32832.2       69.2973        4.0943             0       9.10962       1.43269             0       90.0016       0.79758             0       13.4663             0             0   1.55847e-33     0.0947327     0.0275549        112142        103667   3.74622e+06      0.173568
    0.0365365       1873.03        310.62       32709.2       69.6768       3.94287             0       9.17672       1.41765             0       88.3024      0.428672             0       13.3264             0             0   2.26902e-32     0.0948313     0.0265438        112133        103667   3.74667e+06      0.173749
     0.037037       1877.88       310.483       32577.8       70.0515       3.79865             0       9.24325       1.40222             0       86.6483     0.0553641             0       13.1782             0             0    1.6821e-30     0.0949195     0.0256393        112124        103668   3.74711e+06       0.17391
    0.0375375       1882.69        310.29       32341.2       70.3661       3.74463             0       9.30279       1.38188             0       85.5601     -0.372998             0        12.926             0             0   2.38422e-29     0.0948777     0.0260703        112115        103668   3.74745e+06      0.173834
     0.038038       1887.29       310.094       32096.3        70.657         3.699             0       9.36133        1.3612             0       84.5478     -0.796055             0       12.6653             0             0   1.81326e-27     0.0948168     0.0266981        112106        103669   3.74775e+06      0.173722
    0.0385385       1889.36       309.867       31751.2       70.6603       3.75544             0       9.40769       1.33639             0       84.4583       -1.1546             0       12.3013             0             0   2.50889e-26     0.0945231     0.0297197        112097        103670   3.74752e+06      0.173184
     0.039039       1890.96       309.634       31387.4       70.6091       3.81021             0       9.45247       1.31117             0       84.4241      -1.51014             0       11.9278             0             0   1.85196e-24     0.0942082      0.032958        112088        103670   3.74729e+06      0.172607
    0.0395395       1887.04       309.332       30802.7       69.9133       3.84515             0       9.47842       1.28101             0       85.0441      -1.83024             0       11.4426             0             0   2.49982e-23     0.0936442     0.0387586        112079        103671   3.74697e+06      0.171574
      0.04004       1882.64        309.02       30184.5       69.1093       3.87445             0       9.50168       1.25049             0       85.6666      -2.14256             0         10.95             0             0   1.71826e-21     0.0930698     0.0446663        112071        103672    3.7466e+06      0.170521
    0.0405405       1872.82       308.593         29182       67.0611       3.83884             0       9.49394        1.2158             0       86.3179      -2.36554             0       10.3721             0             0   2.26178e-20     0.0923758     0.0518063        112063        103673   3.74564e+06       0.16925
     0.041041       1862.57       308.157       28145.1        64.893       3.78293             0        9.4821       1.18049             0       86.8752      -2.59169             0       9.78672             0             0   1.38363e-18     0.0916805     0.0589599        112056        103675   3.74466e+06      0.167976
    0.0415415       1847.53       307.606       26724.4       61.3833       3.49975             0       9.42419       1.13835             0       86.3792      -2.85337             0       9.11703             0             0   1.77474e-17     0.0909708     0.0662648        112051        103676   3.74338e+06      0.166676
     0.042042       1831.86       307.047       25284.5       57.7815       3.20903             0       9.36177       1.09548             0       85.7913      -3.11419             0       8.44239             0             0    9.8221e-16     0.0902674     0.0735061        112045        103677    3.7421e+06      0.165387
    0.0425425       1809.31       306.403       23636.1       53.1748       2.83619             0        9.2502       1.04472             0       84.1998      -3.36557             0       7.71372             0             0   1.22855e-14     0.0896315     0.0800537        112041        103679    3.7407e+06      0.164222
     0.043043       1785.06       305.753       21980.6       48.5078        2.4591             0       9.13601      0.993078             0       82.6744      -3.61327             0       6.98549             0             0   6.85177e-13     0.0889765     0.0867972        112037        103680   3.73931e+06      0.163022
    0.0435435       1742.64       305.031       20250.4       43.1991        2.0368             0       8.99388      0.932009             0       81.8505      -3.82188             0       6.26189             0             0   8.38936e-12     0.0881183     0.0956233        112035        103681   3.73796e+06      0.161449
     0.044044       1698.37       304.302       18521.7        38.014       1.59808             0       8.85024      0.869971             0       81.1451      -4.03117             0       5.54108             0             0   5.24024e-10     0.0871742      0.105332        112033        103683   3.73658e+06      0.159719
    0.0445445       1634.86       303.497       16807.4       34.1097      0.989243             0       8.69109      0.797887             0       81.6661       -4.2476             0       4.84912             0             0   6.30366e-09     0.0853391       0.12419        112032        103684   3.73497e+06      0.156357
     0.045045       1572.26       302.699       15125.3       30.4075      0.370752             0       8.52939      0.724946             0       82.2195      -4.45132             0        4.1646             0             0   1.74938e-07     0.0834887      0.143204        112031        103685   3.73341e+06      0.152967
    0.0455455       1518.79       301.966       13767.5        28.749     -0.345314             0       8.34197      0.643353             0       83.1014      -4.52668             0       3.55536             0             0   1.99021e-06     0.0814834        0.1638        112033        103686    3.7324e+06      0.149293