#           y             T         TMean   TPrime2Mean           U_x           U_y           U_z       UMean_x       UMean_y       UMean_z UPrime2Mea... UPrime2Mea... UPrime2Mea... UPrime2Mea... UPrime2Mea... UPrime2Mea...            O2           H2O          C3H8             p         pMean   pPrime2Mean           CO2
  1.11022e-19       294.309        288.67        3.8309       44.3861   1.60784e-18             0       18.9521   5.16542e-18             0       77.4284  -3.21484e-17             0   2.48934e-17             0             0      0.228228    0.00060384    0.00150514        111668        103751   4.09205e+06    0.00110635
  0.000500501       304.418        289.32       44.5566       44.6586    0.00724831             0       18.9704     0.0232863             0       78.0214     -0.144928             0      0.112222             0             0      0.225664    0.00156498    0.00278841        111639        103751    4.0922e+06    0.00286734
     0.001001       314.626       289.976        86.981       44.9324     0.0144554             0       18.9888     0.0465772             0       78.6204     -0.289741             0      0.224681             0             0      0.223086    0.00253187    0.00407357        111610        103751   4.09236e+06    0.00463887
    0.0015015       373.896       293.573        977.06       45.8437    0.00108686             0       19.0668     0.0721792             0       82.2701       -0.3768             0      0.455014             0             0      0.213515     0.0063685    0.00630235        111566        103750    4.0924e+06     0.0116683
     0.002002       433.878       297.216       1926.01       46.7589    -0.0119944             0       19.1452     0.0978297             0       85.9572     -0.462372             0      0.685859             0             0      0.203887     0.0102308    0.00851561        111522        103750   4.09245e+06     0.0187447
    0.0025025       670.679        312.35       17534.2       48.6443     0.0464482             0       19.3312      0.135568             0       98.9452     -0.177558             0       1.04413             0             0      0.180058     0.0204852    0.00686045        111510        103750   4.09296e+06     0.0375328
     0.003003       908.079        327.52       33249.2        50.543      0.105514             0       19.5179      0.173353             0       112.033      0.110344             0       1.40322             0             0      0.156167     0.0307659    0.00519964        111498        103749   4.09348e+06     0.0563689
    0.0035035       1244.49       348.592       66638.1       54.6411      0.267845             0       19.8321      0.218979             0       141.707      0.909936             0       1.89702             0             0      0.122229     0.0453937    0.00260414        111489        103749   4.09393e+06     0.0831697
     0.004004       1579.46       369.589       99959.6       58.7561      0.429488             0       20.1465      0.264605             0       171.473       1.71055             0       2.39178             0             0     0.0883159     0.0600051   6.32181e-05        111481        103748    4.0944e+06      0.109941
    0.0045045       1734.37       381.265        124920       64.9544      0.505949             0       20.4879      0.310241             0       212.694       2.63764             0       3.00395             0             0     0.0576323     0.0725898    0.00429039        111467        103747   4.09523e+06      0.132998
   0.00500501       1887.61        392.85        149677       71.1394      0.581653             0        20.828      0.355793             0       253.824       3.56304             0       3.61702             0             0     0.0271195     0.0850897    0.00864464        111452        103747   4.09606e+06        0.1559
   0.00550551       1874.73        395.31        154306       75.9945      0.582488             0       21.0363       0.39302             0       285.846       4.32124             0       4.31936             0             0     0.0135147     0.0892031     0.0255789        111446        103746   4.09682e+06      0.163437
   0.00600601       1861.34       397.721        158814       80.8081      0.581132             0       21.2424       0.43003             0       317.625       5.06807             0       5.02163             0             0   7.26624e-05     0.0932256     0.0427384        111440        103746   4.09758e+06      0.170807
   0.00650651       1806.04       396.093        153298       82.1958       0.39937             0       21.2723      0.449093             0       329.447       4.87813             0       5.71761             0             0   3.61456e-05      0.089763     0.0784539        111435        103745   4.09847e+06      0.164463
   0.00700701       1750.54       394.452        147757       83.5539      0.217362             0        21.301       0.46799             0       341.091       4.68061             0       6.41424             0             0   1.38944e-07     0.0862864      0.114311        111430        103744   4.09937e+06      0.158093
   0.00750751       1681.39       391.848        140480        82.821     0.0180984             0       21.2434      0.475199             0       340.258       3.94914             0       7.15689             0             0   6.89845e-08     0.0818203      0.160174        111429        103743   4.10027e+06       0.14991
   0.00800801       1612.44       389.247        133219        82.072       -0.1812             0       21.1853       0.48242             0       339.325       3.21636             0       7.90179             0             0   1.43461e-10     0.0773632      0.205944        111428        103742   4.10118e+06      0.141744
   0.00850851       1556.08       386.786        126943       80.3316     -0.382631             0       21.0978      0.490373             0       332.275       2.40384             0       8.78512             0             0   7.11421e-11     0.0734641      0.245982        111430        103742   4.10231e+06        0.1346
   0.00900901        1499.9       384.339        120695       78.5842     -0.582968             0       21.0095      0.498493             0       325.167       1.59323             0       9.67061             0             0   1.23593e-13     0.0695772      0.285895        111432        103741   4.10344e+06      0.127478
   0.00950951       1453.46       382.606        115969       76.4503     -0.723632             0       20.8815      0.515689             0       314.822      0.887331             0       10.6744             0             0   6.12342e-14     0.0663517      0.319015        111438        103739   4.10496e+06      0.121569
      0.01001       1407.17       380.888        111276       74.3243     -0.864944             0       20.7523      0.533111             0       304.463      0.186945             0       11.6799             0             0   1.20878e-16     0.0631441      0.351951        111444        103738   4.10649e+06      0.115692
    0.0105105       1368.28       379.911        108228       72.5854      -1.03801             0       20.5652      0.561637             0       293.426     -0.243286             0       12.7668             0             0   5.98376e-17     0.0608184      0.375829        111449        103737    4.1083e+06      0.111431
     0.011011       1329.72       378.938        105203       70.8623      -1.21119             0       20.3769      0.590294             0       282.415     -0.667464             0       13.8541             0             0    1.3856e-19     0.0585284       0.39934        111455        103736   4.11011e+06      0.107235
    0.0115115       1305.78       378.129        103222       69.8438      -1.38965             0       20.1293      0.624775             0       272.596      -0.82256             0       14.9586             0             0   6.85333e-20     0.0578309      0.406491        111460        103734   4.11235e+06      0.105957
     0.012012       1282.15       377.318        101256       68.8425      -1.56841             0       19.8803      0.659232             0        262.82     -0.974917             0       16.0632             0             0   1.85292e-22     0.0571699      0.413268        111465        103733   4.11459e+06      0.104746
    0.0125125       1270.91        376.43       99904.5       68.5418      -1.75945             0       19.5716      0.692723             0       254.859      -1.01582             0       17.1701             0             0   9.15709e-23      0.057994      0.404789        111470        103731   4.11708e+06      0.106256
     0.013013       1259.96       375.554       98596.5       68.2559      -1.95051             0       19.2615      0.726046             0       246.961       -1.0593             0       18.2762             0             0   2.82598e-25     0.0588471      0.396011        111474        103729   4.11958e+06      0.107819
    0.0135135       1259.79       375.114       98912.4       68.5236      -2.14241             0       18.8952      0.753038             0       241.426      -1.19914             0       19.3578             0             0   1.39918e-25     0.0607889      0.376057        111478        103727   4.12227e+06      0.111377
     0.014014       1260.01        374.71         99309       68.7929      -2.33219             0       18.5287      0.779718             0       236.014      -1.33687             0       20.4385             0             0   1.21654e-27     0.0627429      0.355977        111481        103726   4.12497e+06      0.114957
    0.0145145       1273.62       375.559        102511        69.115       -2.4486             0       18.1559      0.795559             0       234.878      -1.40161             0       21.4907             0             0   6.10435e-28      0.065122      0.331541        111484        103724   4.12795e+06      0.119316
     0.015015        1287.5       376.444        105788       69.4117      -2.55767             0       17.7841      0.810743             0       233.868      -1.47294             0       22.5418             0             0   2.21762e-29     0.0674916      0.307204        111487        103722   4.13094e+06      0.123657
    0.0155155       1310.18       378.504        111490       68.8879      -2.42979             0       17.4411      0.804701             0       236.905      -1.75747             0       23.5613             0             0   1.09712e-29     0.0695517      0.286053        111492        103721    4.1343e+06      0.127432
     0.016016       1333.16       380.569        117206       68.3253       -2.2895             0       17.0992      0.798083             0       240.017       -2.0485             0        24.581             0             0   1.22872e-31     0.0716034      0.264989        111496        103719   4.13765e+06      0.131191
    0.0165165       1365.09       382.798        123322        66.589      -1.77356             0       16.7879       0.77408             0       245.425      -2.53655             0       25.6036             0             0    6.0571e-32     0.0734011      0.246535        111502        103718   4.14085e+06      0.134484
     0.017017       1397.64       385.003        129383        64.854      -1.25697             0       16.4777      0.749665             0       250.889      -3.03623             0       26.6268             0             0   3.81684e-34     0.0752032      0.228036        111509        103716   4.14404e+06      0.137786
    0.0175175       1447.73       386.534        133912       63.1574     -0.722055             0       16.2011      0.713561             0       257.959      -3.86615             0       27.6691             0             0   1.87708e-34      0.077131      0.208246        111514        103715   4.14717e+06      0.141318
     0.018018       1498.26        388.04        138382       61.5194     -0.202508             0       15.9252      0.677509             0        265.02      -4.69488             0       28.7112             0             0   7.01281e-37     0.0790579      0.188466        111519        103713   4.15029e+06      0.144849
    0.0185185       1560.54       388.893        141251       61.4523    -0.0945309             0       15.6695      0.642878             0        271.88      -5.49137             0        29.747             0             0   3.44296e-37     0.0809602      0.168939        111524        103712   4.15332e+06      0.148334
     0.019019        1622.7       389.728        144077       61.4344  -0.000227326             0        15.413      0.608293             0       278.542      -6.28237             0        30.783             0             0   8.59594e-40     0.0828526      0.149513        111529        103710   4.15635e+06      0.151801
    0.0195195        1681.7       390.112        145783       62.6648     -0.252078             0        15.135      0.574853             0       280.218       -6.9343             0       31.8237             0             0    4.2155e-40     0.0844956      0.132646        111536        103709   4.15936e+06      0.154812
      0.02002       1740.07       390.474        147437       63.8718     -0.503086             0       14.8551      0.541482             0       281.579      -7.57464             0        32.867             0             0   1.00833e-42      0.086124      0.115929        111543        103708   4.16236e+06      0.157795
    0.0205205       1783.38       390.314        147846       64.5171      -0.73386             0       14.5286      0.509809             0       275.368      -7.93698             0       33.9702             0             0   4.93866e-43     0.0874014      0.102816        111550        103707   4.16511e+06      0.160136
     0.021021       1825.85       390.122        148192       65.0774     -0.955457             0       14.2002       0.47816             0       268.923      -8.29198             0       35.0754             0             0   9.89733e-46     0.0886602     0.0898929        111558        103705   4.16783e+06      0.162442
    0.0215215       1849.28       389.181        147113       63.6993     -0.967746             0       13.8286      0.447053             0        257.11      -8.47938             0        36.225             0             0   4.84045e-46     0.0894976     0.0812965        111565        103704   4.17019e+06      0.163976
     0.022022        1872.1        388.22        145995       62.2608     -0.971964             0       13.4557      0.416033             0       245.204      -8.65659             0       37.3718             0             0   5.94347e-49     0.0903195     0.0728588        111572        103703   4.17256e+06      0.165482
    0.0225225       1881.56       386.804        144049       59.5136     -0.800802             0       13.0558      0.386883             0       231.296      -8.61218             0        38.456             0             0   2.90477e-49     0.0908054     0.0678698        111579        103702   4.17487e+06      0.166372
     0.023023       1890.71       385.381        142088        56.782     -0.631358             0        12.656      0.357488             0       217.433      -8.57186             0        39.537             0             0   5.72368e-52     0.0912813     0.0629827        111586        103701   4.17716e+06      0.167244
    0.0235235       1893.62       383.838        139786       54.3749      -0.49753             0       12.2568      0.323024             0       204.492      -8.61608             0       40.5518             0             0   2.79646e-52     0.0915515     0.0602078        111594        103700   4.17881e+06      0.167739
     0.024024       1896.43       382.287        137467       52.0521      -0.37242             0       11.8593      0.288212             0       191.718      -8.66454             0        41.557             0             0   9.51202e-55      0.091815      0.057501        111601        103699   4.18044e+06      0.168222
    0.0245245       1897.07       380.581        134801       51.4029     -0.420206             0       11.4932      0.246502             0       182.265      -8.79699             0       42.3725             0             0    4.6447e-55     0.0919468     0.0561472        111609        103699   4.18161e+06      0.168464
     0.025025       1897.68       378.851        132118       50.8615     -0.479191             0       11.1306       0.20465             0       173.122      -8.92987             0       43.1753             0             0   2.02251e-57     0.0920753      0.054827        111616        103699   4.18272e+06      0.168699
    0.0255255       1897.66       376.674        129098       52.3663     -0.750961             0       10.8311      0.160105             0       169.873      -9.07077             0       43.7382             0             0   9.87392e-58     0.0921417     0.0541457        111623        103698   4.18261e+06      0.168821
     0.026026       1897.65        374.51        126122       53.9098      -1.02463             0        10.535      0.115369             0       166.912      -9.22306             0       44.2917             0             0   7.21113e-60     0.0922064     0.0534816        111630        103698   4.18248e+06      0.168939
    0.0265265       1897.61       372.581        123936       56.1607      -1.33292             0       10.3021     0.0671586             0        169.21      -9.58306             0       44.6735             0             0   2.85374e-59     0.0922404     0.0531321        111636        103698   4.18194e+06      0.169002
     0.027027       1897.58       370.705        121816       58.3526      -1.63736             0       10.0718     0.0189364             0       171.591      -9.94348             0       45.0469             0             0   7.61106e-59     0.0922732     0.0527952        111643        103698    4.1814e+06      0.169062
    0.0275275       1897.52       369.768        120842       59.5128       -1.8742             0       9.88783     -0.029488             0       175.431      -10.3112             0       45.2746             0             0    5.8349e-58     0.0922845     0.0526801        111648        103698   4.18085e+06      0.169082
     0.028028       1897.45       368.857        119881       60.6122      -2.10888             0       9.70573     -0.077938             0       179.231      -10.6809             0       45.4984             0             0   1.06111e-57     0.0922949      0.052573        111654        103698   4.18023e+06      0.169101
    0.0285285       1897.17       368.379        119147       60.6856      -2.30718             0       9.55451     -0.126818             0        182.37       -11.083             0       45.6566             0             0   1.03707e-57     0.0922921     0.0526015        111658        103699   4.17826e+06      0.169096
     0.029029       1896.87       367.914        118428       60.7615      -2.50378             0       9.40406     -0.175618             0       185.455      -11.4858             0       45.8065             0             0   1.69288e-57      0.092289      0.052634        111663        103699   4.17626e+06      0.169091
    0.0295295       1896.44        367.66        117962       60.8763      -2.67294             0       9.26588     -0.223123             0       187.669      -11.8984             0       45.8215             0             0   1.33905e-56     0.0922795     0.0527314        111667        103699   4.17358e+06      0.169073
      0.03003       1896.02       367.417        117515       60.9996      -2.83964             0        9.1283     -0.270455             0       189.869       -12.312             0        45.821             0             0   1.37278e-55     0.0922701      0.052828        111670        103700   4.17086e+06      0.169056
    0.0305305       1895.67       367.325        117370       61.2568      -2.96782             0       8.99992     -0.315077             0       191.854      -12.7429             0       45.5771             0             0    2.0188e-54      0.092262     0.0529102        111673        103701   4.16754e+06      0.169041
     0.031031       1895.32       367.241        117240        61.503      -3.09578             0       8.87149     -0.359168             0       193.779      -13.1677             0       45.3146             0             0   7.14168e-54     0.0922544     0.0529888        111676        103702   4.16421e+06      0.169027
    0.0315315       1895.03       367.268        117328       61.5847      -3.22056             0       8.74234     -0.395235             0       194.796       -13.501             0        44.768             0             0   6.13031e-53     0.0922521      0.053012        111679        103703   4.16082e+06      0.169023
     0.032032       1894.73       367.296        117420       61.6645      -3.34373             0        8.6138      -0.43052             0        195.76       -13.829             0       44.2022             0             0   1.43117e-52     0.0922503     0.0530307        111681        103704   4.15741e+06       0.16902
    0.0325325       1894.42       367.344        117564       61.7178      -3.44336             0       8.49415      -0.45437             0       195.935      -14.0805             0       43.3539             0             0   6.29349e-52     0.0922548     0.0529843        111683        103705   4.15373e+06      0.169028
     0.033033       1894.11       367.388        117701       61.7712        -3.542             0       8.37642     -0.477425             0       196.075      -14.3296             0       42.4906             0             0   2.00811e-51     0.0922599     0.0529326        111685        103707   4.15004e+06      0.169037
    0.0335335       1893.83       367.368        117743       61.8261      -3.62673             0       8.28588     -0.489215             0       195.727      -14.5464             0       41.4154             0             0   1.60175e-50     0.0922722     0.0528061        111687        103708   4.14638e+06       0.16906
     0.034034       1893.52       367.343        117778       61.8771       -3.7102             0       8.19789     -0.500469             0       195.339       -14.761             0       40.3303             0             0   2.94493e-50     0.0922851     0.0526736        111689        103710    4.1427e+06      0.169084
    0.0345345       1892.89        367.25        117697       61.8737      -3.77638             0       8.14494     -0.504362             0       194.398      -14.9478             0       39.1109             0             0   3.49646e-50     0.0923059     0.0524605        111692        103711   4.13885e+06      0.169122
     0.035035       1892.25       367.153        117610       61.8669      -3.84172             0       8.09485     -0.508116             0       193.433       -15.131             0       37.8851             0             0   1.07219e-49     0.0923273     0.0522406        111695        103713   4.13499e+06      0.169161
    0.0355355       1891.36       367.008        117441       61.8139      -3.89578             0       8.08268     -0.510013             0       192.136       -15.266             0       36.5751             0             0   1.06615e-48     0.0923574     0.0519314        111698        103715   4.13103e+06      0.169216
     0.036036       1890.49       366.862        117271        61.758      -3.94802             0       8.07286     -0.511712             0       190.829      -15.3993             0       35.2615             0             0   2.55844e-47     0.0923883     0.0516143        111701        103717   4.12706e+06      0.169273
    0.0365365       1889.68       366.707        117076       61.6649      -3.97693             0        8.0933     -0.510864             0       189.398      -15.5107             0       33.8998             0             0   3.53756e-46     0.0924293     0.0511937        111705        103718   4.12302e+06      0.169348
     0.037037       1888.87       366.558        116889       61.5675      -4.00433             0       8.11553     -0.509518             0           188      -15.6263             0        32.536             0             0    8.8087e-45      0.092471     0.0507661        111709        103720   4.11899e+06      0.169424
    0.0375375          1888       366.491        116806       61.4172      -4.01284             0       8.16026     -0.501957             0           187       -15.795             0       31.1463             0             0   1.18958e-43     0.0925211     0.0502517        111714        103722   4.11497e+06      0.169516
     0.038038       1887.11       366.429        116728       61.2645       -4.0191             0       8.20733     -0.494046             0       186.065      -15.9722             0       29.7566             0             0   3.03984e-42     0.0925719     0.0497305        111719        103724   4.11094e+06      0.169609
    0.0385385       1886.09       366.416        116719       61.0833      -3.99806             0       8.28289     -0.481898             0       185.916       -16.253             0       28.3677             0             0   4.01333e-41     0.0926307     0.0491269        111725        103726   4.10665e+06      0.169717
     0.039039       1885.06        366.39        116687       60.8986      -3.97488             0       8.36081     -0.469812             0       185.791      -16.5481             0       26.9812             0             0   1.06198e-39     0.0926902     0.0485154        111730        103728   4.10236e+06      0.169826
    0.0395395       1883.91       366.206        116389       60.6737      -3.92655             0       8.46659     -0.458468             0       185.948      -17.0119             0       25.6231             0             0   1.37241e-38     0.0927589     0.0478108        111736        103729   4.09796e+06      0.169952
      0.04004       1882.78       366.008        116053       60.4468      -3.87532             0       8.57347      -0.44722             0       186.113      -17.4801             0       24.2723             0             0   3.80014e-37     0.0928281     0.0471003        111742        103731   4.09354e+06      0.170078
    0.0405405       1881.74       365.643        115284       60.1974      -3.79078             0       8.69292     -0.437082             0       186.373           -18             0       23.0056             0             0   4.81302e-36     0.0929039     0.0463219        111749        103733   4.08894e+06      0.170217
     0.041041       1880.73       365.263        114461        59.945      -3.70402             0       8.81036     -0.426671             0       186.585      -18.5015             0       21.7507             0             0   1.41033e-34     0.0929804     0.0455373        111755        103735   4.08434e+06      0.170357
    0.0415415       1879.95       364.723        113029       59.6588      -3.59241             0       8.90532     -0.413201             0       186.265      -18.7977             0       20.6282             0             0   1.75262e-33     0.0930636     0.0446828        111761        103736   4.07973e+06       0.17051
     0.042042       1879.22       364.116        111472       59.3729      -3.47818             0       8.99472     -0.399366             0       185.717      -19.0591             0       19.5056             0             0   5.48115e-32     0.0931481     0.0438158        111768        103738   4.07519e+06      0.170665
    0.0425425       1878.88       362.784        108549       59.0896      -3.33541             0       9.02336     -0.381556             0       182.691      -18.9401             0        18.381             0             0    6.6889e-31     0.0932458     0.0428133        111774        103739   4.07135e+06      0.170844
     0.043043       1878.59       361.338        105488       58.8054      -3.19172             0       9.04571     -0.363607             0       179.351      -18.7676             0       17.2283             0             0   2.22432e-29     0.0933463      0.041782        111780        103741   4.06761e+06      0.171028
    0.0435435       1878.71       358.687        100962       58.5107      -3.03825             0       9.00121     -0.344187             0       172.676      -18.0256             0       15.7765             0             0   2.66581e-28     0.0934767     0.0404438        111786        103742   4.06488e+06      0.171267
     0.044044       1878.83       355.967       96400.8       58.2219      -2.88391             0       8.95116     -0.325374             0        165.85      -17.2439             0       14.3027             0             0   9.13114e-27     0.0936113      0.039062        111792        103744   4.06227e+06      0.171513
    0.0445445        1878.9       352.521       91475.3       57.9934      -2.72061             0       8.84375     -0.312863             0       157.462      -16.0502             0       12.6008             0             0   1.07333e-25       0.09379     0.0372285        111797        103746    4.0609e+06      0.171841
     0.045045       1878.76       349.036       86484.7       57.7455      -2.55884             0       8.72976      -0.30037             0        149.06      -14.8285             0       10.9033             0             0   3.45366e-24     0.0939729     0.0353534        111802        103747   4.05972e+06      0.172176
    0.0455455       1876.52       345.141       80836.1       57.3024      -2.41252             0        8.5494     -0.288052             0       140.511      -13.3247             0       9.25035             0             0   3.96421e-23     0.0941969     0.0330587        111806        103749   4.06052e+06      0.172586