# PROC_ID PARCEL_ID CellI X Y Z p Ux Uy Uz T C3H8 CO2 H2O N2 O2 largest_pointer wherePositive largest_pointerWP
2.000000e+00 9.000000e+01 9.110000e+02 6.715720e-02 1.755020e-02 5.000000e-04 1.022740e+05 1.559880e+01 1.451170e+00 0.000000e+00 2.919660e+02 2.399400e-01 4.354090e-12 2.376450e-12 5.852460e-01 1.748140e-01 6.000000e+00 0.000000e+00 0.000000e+00
2.000000e+00 8.900000e+01 7.540000e+02 6.613040e-02 1.440720e-02 5.000000e-04 1.022480e+05 1.439840e+01 -3.066920e+00 0.000000e+00 2.936890e+02 2.758240e-01 8.208410e-12 4.480120e-12 5.576160e-01 1.665610e-01 1.100000e+01 0.000000e+00 0.000000e+00
2.000000e+00 8.800000e+01 7.010000e+02 6.518990e-02 1.317380e-02 5.000000e-04 1.022270e+05 1.418920e+01 -3.657690e+00 0.000000e+00 2.931010e+02 2.847050e-01 8.362470e-12 4.564200e-12 5.507770e-01 1.645180e-01 6.000000e+00 0.000000e+00 0.000000e+00
2.000000e+00 8.700000e+01 6.480000e+02 6.465400e-02 1.268290e-02 5.000000e-04 1.022130e+05 1.403440e+01 -2.527520e+00 0.000000e+00 2.930370e+02 3.083220e-01 7.972340e-12 4.351270e-12 5.325920e-01 1.590860e-01 5.000000e+00 0.000000e+00 0.000000e+00
2.000000e+00 9.100000e+01 9.630000e+02 6.705610e-02 1.866180e-02 5.000000e-04 1.022660e+05 1.562550e+01 2.644930e+00 0.000000e+00 2.913180e+02 2.380380e-01 2.340060e-12 1.277200e-12 5.867100e-01 1.752510e-01 6.000000e+00 0.000000e+00 0.000000e+00
2.000000e+00 8.600000e+01 6.470000e+02 6.376270e-02 1.239830e-02 5.000000e-04 1.022010e+05 1.358990e+01 -1.180880e+00 0.000000e+00 2.920290e+02 3.103780e-01 1.263270e-11 6.894900e-12 5.310090e-01 1.586130e-01 5.000000e+00 0.000000e+00 0.000000e+00
2.000000e+00 7.400000e+01 3.970000e+02 7.344370e-02 7.876720e-03 5.000000e-04 1.023170e+05 2.074550e+01 4.213950e+00 0.000000e+00 2.983210e+02 1.766910e-01 4.306830e-11 2.350650e-11 6.339480e-01 1.893610e-01 8.000000e+00 0.000000e+00 0.000000e+00
2.000000e+00 9.200000e+01 9.620000e+02 6.692420e-02 1.850240e-02 5.000000e-04 1.022610e+05 1.652980e+01 2.452180e+00 0.000000e+00 2.895090e+02 2.034690e-01 3.236530e-12 1.766480e-12 6.133290e-01 1.832020e-01 5.000000e+00 0.000000e+00 0.000000e+00
2.000000e+00 7.300000e+01 3.440000e+02 7.261680e-02 6.958150e-03 5.000000e-04 1.023030e+05 2.132190e+01 3.657010e+00 0.000000e+00 3.003540e+02 1.411440e-01 5.779480e-11 3.154420e-11 6.613190e-01 1.975370e-01 7.000000e+00 0.000000e+00 0.000000e+00
2.000000e+00 7.200000e+01 2.910000e+02 7.119850e-02 5.890490e-03 5.000000e-04 1.022940e+05 2.081380e+01 2.647750e+00 0.000000e+00 2.996070e+02 9.366050e-02 4.432260e-11 2.419110e-11 6.978810e-01 2.084580e-01 5.000000e+00 0.000000e+00 0.000000e+00
2.000000e+00 6.800000e+01 2.800000e+01 6.832630e-02 0.000000e+00 5.000000e-04 1.022550e+05 1.950430e+01 2.057100e-01 0.000000e+00 2.879770e+02 3.298160e-03 2.314220e-13 1.263090e-13 7.674600e-01 2.292410e-01 8.000000e+00 0.000000e+00 0.000000e+00
2.000000e+00 6.900000e+01 8.000000e+01 6.831640e-02 1.506930e-03 5.000000e-04 1.022550e+05 1.953590e+01 5.579300e-01 0.000000e+00 2.882090e+02 8.937590e-03 1.671650e-12 9.123790e-13 7.631180e-01 2.279440e-01 5.000000e+00 0.000000e+00 0.000000e+00
2.000000e+00 7.000000e+01 1.320000e+02 6.832780e-02 2.783140e-03 5.000000e-04 1.022530e+05 1.940660e+01 1.068970e+00 0.000000e+00 2.894140e+02 2.232780e-02 7.289960e-12 3.978830e-12 7.528080e-01 2.248650e-01 5.000000e+00 0.000000e+00 0.000000e+00
2.000000e+00 7.100000e+01 2.370000e+02 6.966850e-02 4.890500e-03 5.000000e-04 1.022610e+05 2.090540e+01 2.117160e+00 0.000000e+00 3.008620e+02 5.735410e-02 4.721730e-11 2.577100e-11 7.258370e-01 2.168090e-01 9.000000e+00 0.000000e+00 0.000000e+00
2.000000e+00 7.500000e+01 3.400000e+02 6.867500e-02 6.340320e-03 5.000000e-04 1.022500e+05 2.375370e+01 5.720490e-01 0.000000e+00 3.146900e+02 1.872360e-01 2.058930e-10 1.123750e-10 6.258280e-01 1.869360e-01 5.000000e+00 0.000000e+00 0.000000e+00
2.000000e+00 9.300000e+01 9.620000e+02 6.668590e-02 1.820390e-02 5.000000e-04 1.022610e+05 1.652980e+01 2.452180e+00 0.000000e+00 2.895090e+02 2.034690e-01 3.236530e-12 1.766480e-12 6.133290e-01 1.832020e-01 5.000000e+00 0.000000e+00 0.000000e+00
2.000000e+00 7.600000e+01 6.420000e+02 5.865960e-02 1.206200e-02 5.000000e-04 1.021710e+05 1.192570e+01 4.903970e+00 0.000000e+00 2.959870e+02 3.135460e-01 4.011680e-10 2.189560e-10 5.285700e-01 1.578850e-01 5.000000e+00 0.000000e+00 0.000000e+00
2.000000e+00 9.400000e+01 9.090000e+02 6.585800e-02 1.785930e-02 5.000000e-04 1.022580e+05 1.841340e+01 1.435970e+00 0.000000e+00 2.898240e+02 1.804260e-01 9.667820e-12 5.276660e-12 6.310720e-01 1.885020e-01 5.000000e+00 0.000000e+00 0.000000e+00
2.000000e+00 1.130000e+02 2.840000e+02 6.461940e-02 5.880190e-03 5.000000e-04 1.022290e+05 2.022600e+01 1.124380e+00 0.000000e+00 3.142520e+02 1.034420e-01 5.930610e-10 3.236900e-10 6.903500e-01 2.062080e-01 6.000000e+00 0.000000e+00 0.000000e+00
2.000000e+00 1.120000e+02 2.330000e+02 6.500710e-02 4.979760e-03 5.000000e-04 1.022350e+05 2.056050e+01 9.460100e-01 0.000000e+00 3.046960e+02 6.404630e-02 2.152880e-10 1.175030e-10 7.206840e-01 2.152690e-01 5.000000e+00 0.000000e+00 0.000000e+00
2.000000e+00 1.110000e+02 1.810000e+02 6.504130e-02 3.906780e-03 5.000000e-04 1.022360e+05 2.084560e+01 9.473880e-01 0.000000e+00 2.939940e+02 3.866020e-02 9.483260e-11 5.175920e-11 7.402320e-01 2.211080e-01 7.000000e+00 0.000000e+00 0.000000e+00
2.000000e+00 1.140000e+02 3.360000e+02 6.430140e-02 6.071100e-03 5.000000e-04 1.022300e+05 2.004040e+01 9.715710e-01 0.000000e+00 3.163640e+02 1.463250e-01 7.054810e-10 3.850490e-10 6.573300e-01 1.963450e-01 5.000000e+00 0.000000e+00 0.000000e+00
2.000000e+00 1.100000e+02 1.800000e+02 6.492680e-02 3.328540e-03 5.000000e-04 1.022290e+05 2.094890e+01 5.685340e-01 0.000000e+00 2.941040e+02 4.563800e-02 1.601580e-10 8.741380e-11 7.348590e-01 2.195030e-01 6.000000e+00 0.000000e+00 0.000000e+00
2.000000e+00 1.090000e+02 1.280000e+02 6.472040e-02 2.403780e-03 5.000000e-04 1.022270e+05 2.091110e+01 5.369390e-01 0.000000e+00 2.898210e+02 2.080990e-02 5.231600e-11 2.855380e-11 7.539760e-01 2.252140e-01 8.000000e+00 0.000000e+00 0.000000e+00
2.000000e+00 1.080000e+02 7.600000e+01 6.456360e-02 1.419510e-03 5.000000e-04 1.022280e+05 2.075700e+01 1.791950e-01 0.000000e+00 2.882900e+02 6.408280e-03 9.722910e-12 5.306720e-12 7.650660e-01 2.285260e-01 8.000000e+00 0.000000e+00 0.000000e+00
2.000000e+00 1.070000e+02 2.400000e+01 6.446790e-02 9.019290e-04 5.000000e-04 1.022270e+05 2.068110e+01 1.624480e-01 0.000000e+00 2.879960e+02 1.118760e-03 1.110200e-12 6.059400e-13 7.691390e-01 2.297430e-01 1.100000e+01 0.000000e+00 0.000000e+00
2.000000e+00 1.060000e+02 2.400000e+01 6.440060e-02 0.000000e+00 5.000000e-04 1.022270e+05 2.068110e+01 1.624480e-01 0.000000e+00 2.879960e+02 1.118760e-03 1.110200e-12 6.059400e-13 7.691390e-01 2.297430e-01 1.100000e+01 0.000000e+00 0.000000e+00
2.000000e+00 1.150000e+02 2.840000e+02 6.418230e-02 5.182550e-03 5.000000e-04 1.022290e+05 2.022600e+01 1.124380e+00 0.000000e+00 3.142520e+02 1.034420e-01 5.930610e-10 3.236900e-10 6.903500e-01 2.062080e-01 6.000000e+00 0.000000e+00 0.000000e+00
2.000000e+00 1.180000e+02 2.310000e+02 6.303220e-02 4.720050e-03 5.000000e-04 1.022200e+05 2.109560e+01 5.173170e-01 0.000000e+00 3.029260e+02 9.190060e-02 5.429680e-10 2.963500e-10 6.992370e-01 2.088630e-01 8.000000e+00 0.000000e+00 0.000000e+00
2.000000e+00 7.700000e+01 7.420000e+02 5.477960e-02 1.468170e-02 5.000000e-04 1.021530e+05 1.496420e+01 2.671660e+00 0.000000e+00 3.080200e+02 3.230570e-01 3.779620e-10 2.062900e-10 5.212460e-01 1.556970e-01 6.000000e+00 0.000000e+00 0.000000e+00
2.000000e+00 1.160000e+02 1.780000e+02 6.216490e-02 3.003420e-03 5.000000e-04 1.022070e+05 2.114880e+01 2.689140e-03 0.000000e+00 2.948220e+02 7.503790e-02 3.865850e-10 2.109960e-10 7.122210e-01 2.127410e-01 5.000000e+00 0.000000e+00 0.000000e+00
2.000000e+00 1.280000e+02 9.060000e+02 6.253290e-02 1.728370e-02 5.000000e-04 1.021950e+05 2.184320e+01 -8.573630e-01 0.000000e+00 2.911620e+02 1.495550e-01 3.040590e-11 1.659540e-11 6.548430e-01 1.956020e-01 6.000000e+00 0.000000e+00 0.000000e+00
2.000000e+00 1.270000e+02 9.060000e+02 6.215480e-02 1.729490e-02 5.000000e-04 1.021950e+05 2.184320e+01 -8.573630e-01 0.000000e+00 2.911620e+02 1.495550e-01 3.040590e-11 1.659540e-11 6.548430e-01 1.956020e-01 6.000000e+00 0.000000e+00 0.000000e+00
2.000000e+00 1.170000e+02 1.250000e+02 6.103050e-02 2.962590e-03 5.000000e-04 1.021990e+05 2.092380e+01 -6.281310e-02 0.000000e+00 2.903660e+02 4.826380e-02 2.052600e-10 1.120300e-10 7.328370e-01 2.188990e-01 5.000000e+00 0.000000e+00 0.000000e+00
2.000000e+00 1.290000e+02 9.050000e+02 6.177210e-02 1.789420e-02 5.000000e-04 1.021780e+05 2.218090e+01 -1.026990e+00 0.000000e+00 2.933720e+02 1.868620e-01 5.508350e-11 3.006430e-11 6.261160e-01 1.870220e-01 6.000000e+00 0.000000e+00 0.000000e+00
2.000000e+00 1.260000e+02 9.040000e+02 6.060190e-02 1.791330e-02 5.000000e-04 1.021690e+05 2.225880e+01 -1.864110e-02 0.000000e+00 2.974450e+02 2.474170e-01 8.737600e-11 4.768950e-11 5.794890e-01 1.730940e-01 8.000000e+00 0.000000e+00 0.000000e+00
2.000000e+00 1.300000e+02 9.560000e+02 6.028800e-02 1.872840e-02 5.000000e-04 1.021760e+05 2.204640e+01 1.245320e-01 0.000000e+00 2.909900e+02 1.344990e-01 4.102250e-11 2.238990e-11 6.664350e-01 1.990650e-01 9.000000e+00 0.000000e+00 0.000000e+00
2.000000e+00 9.500000e+01 1.007000e+03 5.929150e-02 1.958930e-02 5.000000e-04 1.021790e+05 2.059770e+01 1.764240e+00 0.000000e+00 2.893770e+02 1.003100e-01 2.239820e-11 1.222480e-11 6.927610e-01 2.069290e-01 5.000000e+00 0.000000e+00 0.000000e+00
2.000000e+00 1.310000e+02 1.006000e+03 5.856060e-02 1.929550e-02 5.000000e-04 1.021670e+05 2.091980e+01 2.754000e+00 0.000000e+00 2.899430e+02 1.063430e-01 3.324730e-11 1.814620e-11 6.881160e-01 2.055410e-01 6.000000e+00 0.000000e+00 0.000000e+00
2.000000e+00 8.500000e+01 9.000000e+02 5.689860e-02 1.769830e-02 5.000000e-04 1.021580e+05 2.041860e+01 4.841070e+00 0.000000e+00 3.054530e+02 2.562270e-01 1.859440e-10 1.014880e-10 5.727050e-01 1.710680e-01 6.000000e+00 0.000000e+00 0.000000e+00
2.000000e+00 1.520000e+02 3.320000e+02 6.083810e-02 6.667710e-03 5.000000e-04 1.022050e+05 2.264480e+01 6.277930e-01 0.000000e+00 3.231230e+02 1.434030e-01 1.718270e-09 9.378270e-10 6.595800e-01 1.970170e-01 9.000000e+00 0.000000e+00 0.000000e+00
2.000000e+00 8.100000e+01 4.350000e+02 5.950320e-02 8.584090e-03 5.000000e-04 1.021860e+05 2.015060e+01 4.070540e+00 0.000000e+00 3.230030e+02 1.809830e-01 2.349720e-09 1.282470e-09 6.306430e-01 1.883740e-01 7.000000e+00 0.000000e+00 0.000000e+00
2.000000e+00 1.510000e+02 3.320000e+02 6.049400e-02 6.193870e-03 5.000000e-04 1.022050e+05 2.264480e+01 6.277930e-01 0.000000e+00 3.231230e+02 1.434030e-01 1.718270e-09 9.378270e-10 6.595800e-01 1.970170e-01 9.000000e+00 0.000000e+00 0.000000e+00
2.000000e+00 1.500000e+02 2.790000e+02 5.994940e-02 5.156650e-03 5.000000e-04 1.021790e+05 2.279580e+01 -4.467580e-01 0.000000e+00 3.203230e+02 1.206930e-01 1.300860e-09 7.100030e-10 6.770660e-01 2.022410e-01 5.000000e+00 0.000000e+00 0.000000e+00
2.000000e+00 1.250000e+02 8.460000e+02 5.484260e-02 1.646400e-02 5.000000e-04 1.021550e+05 1.875230e+01 3.567910e+00 0.000000e+00 3.094180e+02 2.531550e-01 2.958200e-10 1.614570e-10 5.750710e-01 1.717740e-01 6.000000e+00 0.000000e+00 0.000000e+00
2.000000e+00 7.800000e+01 6.350000e+02 5.190450e-02 1.200010e-02 5.000000e-04 1.021440e+05 1.533650e+01 -1.724000e-01 0.000000e+00 3.282940e+02 3.375290e-01 1.433140e-09 7.822050e-10 5.101030e-01 1.523680e-01 5.000000e+00 0.000000e+00 0.000000e+00
2.000000e+00 1.320000e+02 1.003000e+03 5.593070e-02 1.923960e-02 5.000000e-04 1.021490e+05 1.974430e+01 3.529190e+00 0.000000e+00 2.901340e+02 9.547600e-02 7.416830e-11 4.048070e-11 6.964830e-01 2.080410e-01 5.000000e+00 0.000000e+00 0.000000e+00
2.000000e+00 1.490000e+02 2.780000e+02 5.877840e-02 5.255710e-03 5.000000e-04 1.021810e+05 2.346160e+01 -1.326920e-01 0.000000e+00 3.264210e+02 1.005370e-01 1.277380e-09 6.971870e-10 6.925870e-01 2.068770e-01 5.000000e+00 0.000000e+00 0.000000e+00
2.000000e+00 1.440000e+02 1.600000e+01 5.618460e-02 0.000000e+00 5.000000e-04 1.021870e+05 2.110130e+01 1.341740e-01 0.000000e+00 2.880690e+02 2.602450e-03 6.989670e-12 3.814930e-12 7.679960e-01 2.294010e-01 5.000000e+00 0.000000e+00 0.000000e+00
2.000000e+00 1.450000e+02 6.800000e+01 5.607350e-02 1.015690e-03 5.000000e-04 1.021860e+05 2.096970e+01 3.684740e-01 0.000000e+00 2.887220e+02 1.669760e-02 5.869000e-11 3.203280e-11 7.571430e-01 2.261600e-01 6.000000e+00 0.000000e+00 0.000000e+00
2.000000e+00 1.460000e+02 6.700000e+01 5.585510e-02 1.733650e-03 5.000000e-04 1.021810e+05 2.130340e+01 5.179300e-01 0.000000e+00 2.886700e+02 1.186020e-02 4.121820e-11 2.249680e-11 7.608680e-01 2.272720e-01 9.000000e+00 0.000000e+00 0.000000e+00
2.000000e+00 1.470000e+02 1.710000e+02 5.551620e-02 3.783580e-03 5.000000e-04 1.021720e+05 2.102200e+01 1.569570e+00 0.000000e+00 3.035070e+02 5.437740e-02 3.745170e-10 2.044100e-10 7.281290e-01 2.174930e-01 6.000000e+00 0.000000e+00 0.000000e+00
2.000000e+00 1.480000e+02 2.760000e+02 5.616380e-02 5.032960e-03 5.000000e-04 1.021680e+05 2.441590e+01 1.456380e+00 0.000000e+00 3.321640e+02 7.688170e-02 1.207820e-09 6.592250e-10 7.108010e-01 2.123170e-01 5.000000e+00 0.000000e+00 0.000000e+00
2.000000e+00 1.660000e+02 8.450000e+02 5.359670e-02 1.664310e-02 5.000000e-04 1.021480e+05 1.894070e+01 2.403880e+00 0.000000e+00 3.082410e+02 1.918860e-01 4.738880e-10 2.586460e-10 6.222480e-01 1.858660e-01 6.000000e+00 0.000000e+00 0.000000e+00
2.000000e+00 1.670000e+02 8.970000e+02 5.385450e-02 1.731520e-02 5.000000e-04 1.021390e+05 2.001710e+01 2.548600e+00 0.000000e+00 2.980570e+02 1.286460e-01 5.045520e-10 2.753830e-10 6.709430e-01 2.004110e-01 5.000000e+00 0.000000e+00 0.000000e+00
2.000000e+00 1.650000e+02 7.920000e+02 5.268150e-02 1.567400e-02 5.000000e-04 1.021420e+05 1.755050e+01 1.021530e+00 0.000000e+00 3.130070e+02 2.215610e-01 4.943740e-10 2.698270e-10 5.993980e-01 1.790410e-01 5.000000e+00 0.000000e+00 0.000000e+00
2.000000e+00 1.680000e+02 8.970000e+02 5.353510e-02 1.768380e-02 5.000000e-04 1.021390e+05 2.001710e+01 2.548600e+00 0.000000e+00 2.980570e+02 1.286460e-01 5.045520e-10 2.753830e-10 6.709430e-01 2.004110e-01 5.000000e+00 0.000000e+00 0.000000e+00
2.000000e+00 1.640000e+02 7.390000e+02 5.128100e-02 1.461030e-02 5.000000e-04 1.021430e+05 1.628330e+01 3.637690e-03 0.000000e+00 3.192590e+02 2.711570e-01 5.131080e-10 2.800520e-10 5.612090e-01 1.676340e-01 6.000000e+00 0.000000e+00 0.000000e+00
2.000000e+00 1.530000e+02 4.290000e+02 5.303370e-02 8.809080e-03 5.000000e-04 1.021500e+05 2.406940e+01 -3.673160e-01 0.000000e+00 3.495990e+02 1.900870e-01 1.488090e-08 8.121960e-09 6.236330e-01 1.862800e-01 6.000000e+00 0.000000e+00 0.000000e+00
2.000000e+00 1.690000e+02 9.480000e+02 5.286890e-02 1.804900e-02 5.000000e-04 1.021260e+05 2.020560e+01 1.498050e+00 0.000000e+00 2.908430e+02 1.008470e-01 5.171560e-10 2.822620e-10 6.923480e-01 2.068050e-01 6.000000e+00 0.000000e+00 0.000000e+00
2.000000e+00 1.630000e+02 7.380000e+02 5.012620e-02 1.406930e-02 5.000000e-04 1.021320e+05 1.618910e+01 -5.873240e-01 0.000000e+00 3.179470e+02 2.175470e-01 8.097760e-10 4.419720e-10 6.024890e-01 1.799640e-01 7.000000e+00 0.000000e+00 0.000000e+00
2.000000e+00 1.890000e+02 3.760000e+02 5.278980e-02 7.935860e-03 5.000000e-04 1.021580e+05 2.248420e+01 1.995060e+00 0.000000e+00 3.470510e+02 1.187000e-01 1.378450e-08 7.523500e-09 6.786010e-01 2.026990e-01 7.000000e+00 0.000000e+00 0.000000e+00
2.000000e+00 1.620000e+02 7.370000e+02 4.947740e-02 1.408000e-02 5.000000e-04 1.021380e+05 1.579290e+01 -6.953900e-01 0.000000e+00 3.150980e+02 1.981800e-01 1.112900e-09 6.074140e-10 6.174010e-01 1.844190e-01 5.000000e+00 0.000000e+00 0.000000e+00
2.000000e+00 1.880000e+02 3.770000e+02 5.312630e-02 7.019940e-03 5.000000e-04 1.021570e+05 2.387590e+01 1.717390e+00 0.000000e+00 3.483410e+02 1.182830e-01 1.072130e-08 5.851630e-09 6.789220e-01 2.027950e-01 5.000000e+00 0.000000e+00 0.000000e+00
2.000000e+00 1.870000e+02 2.730000e+02 5.310440e-02 5.737560e-03 5.000000e-04 1.021630e+05 2.334800e+01 2.986630e+00 0.000000e+00 3.245930e+02 5.001650e-02 1.986180e-09 1.084050e-09 7.314870e-01 2.184960e-01 5.000000e+00 0.000000e+00 0.000000e+00
2.000000e+00 1.860000e+02 2.200000e+02 5.299730e-02 4.341480e-03 5.000000e-04 1.021640e+05 2.328750e+01 2.184880e+00 0.000000e+00 3.072830e+02 3.543080e-02 1.419020e-09 7.744970e-10 7.427180e-01 2.218510e-01 5.000000e+00 0.000000e+00 0.000000e+00
2.000000e+00 1.850000e+02 1.680000e+02 5.274410e-02 3.346990e-03 5.000000e-04 1.021600e+05 2.310780e+01 1.416760e+00 0.000000e+00 2.969290e+02 1.791990e-02 3.910230e-10 2.134190e-10 7.562020e-01 2.258780e-01 6.000000e+00 0.000000e+00 0.000000e+00
2.000000e+00 1.840000e+02 6.400000e+01 5.253420e-02 1.851860e-03 5.000000e-04 1.021480e+05 2.266640e+01 4.457450e-01 0.000000e+00 2.883670e+02 1.573270e-03 8.659570e-12 4.726360e-12 7.687890e-01 2.296380e-01 5.000000e+00 0.000000e+00 0.000000e+00
2.000000e+00 1.900000e+02 4.270000e+02 5.108310e-02 8.917280e-03 5.000000e-04 1.021570e+05 2.126040e+01 1.018980e+00 0.000000e+00 3.505620e+02 1.745720e-01 2.706160e-08 1.477010e-08 6.355790e-01 1.898480e-01 6.000000e+00 0.000000e+00 0.000000e+00
2.000000e+00 1.830000e+02 6.400000e+01 5.243460e-02 1.113660e-03 5.000000e-04 1.021480e+05 2.266640e+01 4.457450e-01 0.000000e+00 2.883670e+02 1.573270e-03 8.659570e-12 4.726360e-12 7.687890e-01 2.296380e-01 5.000000e+00 0.000000e+00 0.000000e+00
2.000000e+00 1.820000e+02 1.200000e+01 5.237740e-02 0.000000e+00 5.000000e-04 1.021460e+05 2.259390e+01 3.084790e-01 0.000000e+00 2.880520e+02 3.801450e-04 1.174040e-12 6.407880e-13 7.697070e-01 2.299130e-01 7.000000e+00 0.000000e+00 0.000000e+00
2.000000e+00 1.610000e+02 7.370000e+02 4.968340e-02 1.492870e-02 5.000000e-04 1.021380e+05 1.579290e+01 -6.953900e-01 0.000000e+00 3.150980e+02 1.981800e-01 1.112900e-09 6.074140e-10 6.174010e-01 1.844190e-01 5.000000e+00 0.000000e+00 0.000000e+00
2.000000e+00 7.900000e+01 5.800000e+02 4.839890e-02 1.150660e-02 5.000000e-04 1.021510e+05 1.558970e+01 1.350450e+00 0.000000e+00 3.470380e+02 3.075630e-01 1.850360e-08 1.009920e-08 5.331770e-01 1.592610e-01 5.000000e+00 0.000000e+00 0.000000e+00
2.000000e+00 1.240000e+02 6.820000e+02 4.659170e-02 1.348550e-02 5.000000e-04 1.021190e+05 1.292910e+01 2.420570e+00 0.000000e+00 3.409470e+02 2.871760e-01 1.429710e-08 7.803290e-09 5.488740e-01 1.639490e-01 5.000000e+00 0.000000e+00 0.000000e+00
2.000000e+00 1.700000e+02 1.101000e+03 4.979540e-02 2.124500e-02 5.000000e-04 1.020830e+05 2.023120e+01 1.234660e+00 0.000000e+00 2.877850e+02 7.061090e-02 6.940970e-11 3.788360e-11 7.156300e-01 2.137590e-01 5.000000e+00 0.000000e+00 0.000000e+00
2.000000e+00 1.910000e+02 5.790000e+02 4.721010e-02 1.117170e-02 5.000000e-04 1.021460e+05 1.518330e+01 2.436100e+00 0.000000e+00 3.556410e+02 2.760100e-01 3.650570e-08 1.992470e-08 5.574720e-01 1.665180e-01 6.000000e+00 0.000000e+00 0.000000e+00
2.000000e+00 2.020000e+02 8.930000e+02 4.962340e-02 1.756580e-02 5.000000e-04 1.021130e+05 2.019800e+01 -2.047050e+00 0.000000e+00 2.903000e+02 1.589710e-01 2.793970e-09 1.524940e-09 6.475920e-01 1.934370e-01 6.000000e+00 0.000000e+00 0.000000e+00
2.000000e+00 2.030000e+02 9.450000e+02 4.974430e-02 1.832590e-02 5.000000e-04 1.021060e+05 2.120960e+01 -1.815000e+00 0.000000e+00 2.899120e+02 1.488150e-01 3.000760e-09 1.637800e-09 6.554120e-01 1.957730e-01 5.000000e+00 0.000000e+00 0.000000e+00
2.000000e+00 2.010000e+02 8.930000e+02 4.923630e-02 1.717280e-02 5.000000e-04 1.021130e+05 2.019800e+01 -2.047050e+00 0.000000e+00 2.903000e+02 1.589710e-01 2.793970e-09 1.524940e-09 6.475920e-01 1.934370e-01 6.000000e+00 0.000000e+00 0.000000e+00
2.000000e+00 2.040000e+02 9.970000e+02 4.949440e-02 1.923210e-02 5.000000e-04 1.020960e+05 2.123360e+01 -1.130480e+00 0.000000e+00 2.886900e+02 1.019680e-01 8.817830e-10 4.812740e-10 6.914850e-01 2.065470e-01 5.000000e+00 0.000000e+00 0.000000e+00
2.000000e+00 2.050000e+02 1.049000e+03 4.913570e-02 2.026470e-02 5.000000e-04 1.020890e+05 2.070550e+01 1.156930e-02 0.000000e+00 2.880660e+02 7.969170e-02 2.564330e-10 1.399600e-10 7.086370e-01 2.116710e-01 8.000000e+00 0.000000e+00 0.000000e+00
2.000000e+00 8.000000e+01 6.800000e+02 4.491940e-02 1.374520e-02 5.000000e-04 1.021020e+05 1.222040e+01 5.091560e+00 0.000000e+00 3.560450e+02 2.810060e-01 4.930540e-08 2.691070e-08 5.536260e-01 1.653690e-01 5.000000e+00 0.000000e+00 0.000000e+00
2.000000e+00 2.060000e+02 1.100000e+03 4.856430e-02 2.121440e-02 5.000000e-04 1.020730e+05 2.156230e+01 7.731100e-01 0.000000e+00 2.878120e+02 5.767620e-02 1.068350e-10 5.830990e-11 7.255890e-01 2.167340e-01 8.000000e+00 0.000000e+00 0.000000e+00
2.000000e+00 2.000000e+02 9.440000e+02 4.804220e-02 1.804410e-02 5.000000e-04 1.020970e+05 2.173940e+01 -2.541340e+00 0.000000e+00 2.923590e+02 2.062000e-01 6.349370e-09 3.465460e-09 6.112260e-01 1.825740e-01 8.000000e+00 0.000000e+00 0.000000e+00
2.000000e+00 8.400000e+01 7.840000e+02 4.400650e-02 1.538160e-02 5.000000e-04 1.020700e+05 1.235470e+01 3.861650e+00 0.000000e+00 3.073020e+02 2.718670e-01 1.533810e-08 8.371480e-09 5.606620e-01 1.674710e-01 1.600000e+01 0.000000e+00 0.000000e+00
2.000000e+00 2.310000e+02 3.190000e+02 4.739920e-02 6.947750e-03 5.000000e-04 1.021540e+05 2.360280e+01 2.651360e-01 0.000000e+00 3.287640e+02 1.639370e-01 6.158770e-08 3.361430e-08 6.437690e-01 1.922950e-01 5.000000e+00 0.000000e+00 0.000000e+00
2.000000e+00 2.070000e+02 1.151000e+03 4.714420e-02 2.223820e-02 5.000000e-04 1.020520e+05 2.258830e+01 1.416050e+00 0.000000e+00 2.876700e+02 4.993660e-02 6.376100e-11 3.480050e-11 7.315490e-01 2.185150e-01 5.000000e+00 0.000000e+00 0.000000e+00
2.000000e+00 2.290000e+02 2.660000e+02 4.687240e-02 5.220370e-03 5.000000e-04 1.021460e+05 2.354490e+01 -9.224770e-01 0.000000e+00 3.222200e+02 1.539220e-01 4.500570e-08 2.456400e-08 6.514800e-01 1.945980e-01 5.000000e+00 0.000000e+00 0.000000e+00
2.000000e+00 1.920000e+02 6.790000e+02 4.375400e-02 1.345930e-02 5.000000e-04 1.020970e+05 1.237780e+01 6.066460e+00 0.000000e+00 3.686360e+02 2.690730e-01 9.898550e-08 5.402590e-08 5.628140e-01 1.681130e-01 5.000000e+00 0.000000e+00 0.000000e+00
2.000000e+00 2.280000e+02 2.650000e+02 4.596540e-02 5.258380e-03 5.000000e-04 1.021480e+05 2.338600e+01 -1.617490e+00 0.000000e+00 3.289900e+02 1.486380e-01 4.744390e-08 2.589470e-08 6.555480e-01 1.958130e-01 5.000000e+00 0.000000e+00 0.000000e+00
2.000000e+00 2.200000e+02 5.000000e+00 4.584220e-02 0.000000e+00 5.000000e-04 1.021580e+05 2.367820e+01 6.211410e-02 0.000000e+00 2.880080e+02 2.579160e-04 7.356290e-12 4.015030e-12 7.698010e-01 2.299410e-01 5.000000e+00 0.000000e+00 0.000000e+00
2.000000e+00 2.210000e+02 5.000000e+00 4.579950e-02 6.986270e-04 5.000000e-04 1.021580e+05 2.367820e+01 6.211410e-02 0.000000e+00 2.880080e+02 2.579160e-04 7.356290e-12 4.015030e-12 7.698010e-01 2.299410e-01 5.000000e+00 0.000000e+00 0.000000e+00
2.000000e+00 2.220000e+02 5.700000e+01 4.570550e-02 1.122290e-03 5.000000e-04 1.021580e+05 2.366220e+01 -8.790690e-03 0.000000e+00 2.880380e+02 2.472140e-03 1.162450e-10 6.344620e-11 7.680960e-01 2.294310e-01 5.000000e+00 0.000000e+00 0.000000e+00
2.000000e+00 1.940000e+02 6.790000e+02 4.302390e-02 1.375310e-02 5.000000e-04 1.020970e+05 1.237780e+01 6.066460e+00 0.000000e+00 3.686360e+02 2.690730e-01 9.898550e-08 5.402590e-08 5.628140e-01 1.681130e-01 5.000000e+00 0.000000e+00 0.000000e+00
2.000000e+00 2.230000e+02 5.700000e+01 4.545140e-02 1.881770e-03 5.000000e-04 1.021580e+05 2.366220e+01 -8.790690e-03 0.000000e+00 2.880380e+02 2.472140e-03 1.162450e-10 6.344620e-11 7.680960e-01 2.294310e-01 5.000000e+00 0.000000e+00 0.000000e+00
2.000000e+00 2.240000e+02 1.090000e+02 4.513210e-02 2.415910e-03 5.000000e-04 1.021570e+05 2.367050e+01 3.227650e-02 0.000000e+00 2.887420e+02 1.699050e-02 1.348780e-09 7.361590e-10 7.569170e-01 2.260920e-01 5.000000e+00 0.000000e+00 0.000000e+00
2.000000e+00 2.430000e+02 1.097000e+03 4.551450e-02 2.149530e-02 5.000000e-04 1.020410e+05 2.490450e+01 -4.967950e-01 0.000000e+00 2.881440e+02 5.940360e-02 4.501200e-10 2.456730e-10 7.242590e-01 2.163370e-01 8.000000e+00 0.000000e+00 0.000000e+00
2.000000e+00 2.440000e+02 1.149000e+03 4.534550e-02 2.252270e-02 5.000000e-04 1.020320e+05 2.488840e+01 8.318270e-02 0.000000e+00 2.878140e+02 4.982930e-02 1.768750e-10 9.653790e-11 7.316310e-01 2.185390e-01 5.000000e+00 0.000000e+00 0.000000e+00
2.000000e+00 2.420000e+02 1.097000e+03 4.509650e-02 2.100650e-02 5.000000e-04 1.020410e+05 2.490450e+01 -4.967950e-01 0.000000e+00 2.881440e+02 5.940360e-02 4.501200e-10 2.456730e-10 7.242590e-01 2.163370e-01 8.000000e+00 0.000000e+00 0.000000e+00
2.000000e+00 2.410000e+02 1.044000e+03 4.470830e-02 2.066300e-02 5.000000e-04 1.020400e+05 2.496490e+01 1.282510e-02 0.000000e+00 2.946370e+02 1.714790e-01 6.800230e-09 3.711540e-09 6.379610e-01 1.905600e-01 8.000000e+00 0.000000e+00 0.000000e+00
2.000000e+00 2.250000e+02 1.600000e+02 4.420790e-02 3.098880e-03 5.000000e-04 1.021560e+05 2.308460e+01 -3.036080e-01 0.000000e+00 2.955430e+02 6.603110e-02 8.911000e-09 4.863590e-09 7.191560e-01 2.148130e-01 7.000000e+00 0.000000e+00 0.000000e+00
2.000000e+00 2.270000e+02 2.640000e+02 4.409700e-02 5.904030e-03 5.000000e-04 1.021270e+05 2.294970e+01 -1.421390e+00 0.000000e+00 3.356730e+02 1.341630e-01 4.554650e-08 2.485910e-08 6.666950e-01 1.991430e-01 5.000000e+00 0.000000e+00 0.000000e+00
2.000000e+00 2.400000e+02 1.044000e+03 4.411000e-02 2.047350e-02 5.000000e-04 1.020400e+05 2.496490e+01 1.282510e-02 0.000000e+00 2.946370e+02 1.714790e-01 6.800230e-09 3.711540e-09 6.379610e-01 1.905600e-01 8.000000e+00 0.000000e+00 0.000000e+00
2.000000e+00 1.930000e+02 7.290000e+02 4.186600e-02 1.459780e-02 5.000000e-04 1.021030e+05 1.289130e+01 6.698800e+00 0.000000e+00 3.793960e+02 2.775330e-01 1.883210e-07 1.027850e-07 5.563000e-01 1.661670e-01 6.000000e+00 0.000000e+00 0.000000e+00
2.000000e+00 2.450000e+02 1.251000e+03 4.386180e-02 2.433470e-02 5.000000e-04 1.019890e+05 2.640090e+01 1.305370e+00 0.000000e+00 2.877400e+02 6.142130e-02 1.604060e-10 8.754920e-11 7.227060e-01 2.158730e-01 9.000000e+00 0.000000e+00 0.000000e+00
2.000000e+00 2.260000e+02 2.630000e+02 4.307710e-02 5.109440e-03 5.000000e-04 1.021500e+05 2.261930e+01 -1.364070e-01 0.000000e+00 3.370370e+02 1.182670e-01 3.940410e-08 2.150660e-08 6.789350e-01 2.027990e-01 1.100000e+01 0.000000e+00 0.000000e+00
2.000000e+00 1.230000e+02 8.850000e+02 4.187290e-02 1.752330e-02 5.000000e-04 1.020660e+05 1.531020e+01 6.361270e+00 0.000000e+00 3.178170e+02 3.817690e-01 4.938300e-08 2.695300e-08 4.760380e-01 1.421930e-01 8.000000e+00 0.000000e+00 0.000000e+00
2.000000e+00 2.390000e+02 1.042000e+03 4.261500e-02 2.040320e-02 5.000000e-04 1.020460e+05 2.318530e+01 1.768820e+00 0.000000e+00 3.044690e+02 2.371940e-01 1.483110e-08 8.094750e-09 5.873610e-01 1.754450e-01 5.000000e+00 0.000000e+00 0.000000e+00
2.000000e+00 2.640000e+02 4.170000e+02 4.147620e-02 8.495070e-03 5.000000e-04 1.021440e+05 2.525840e+01 4.719680e+00 0.000000e+00 3.689200e+02 9.369800e-02 1.108200e-07 6.048500e-08 6.978520e-01 2.084490e-01 9.000000e+00 0.000000e+00 0.000000e+00
2.000000e+00 2.800000e+02 1.249000e+03 4.159130e-02 2.409780e-02 5.000000e-04 1.019870e+05 2.814890e+01 -1.823380e-01 0.000000e+00 2.882380e+02 6.967660e-02 6.070340e-10 3.313170e-10 7.163490e-01 2.139740e-01 0.000000e+00 0.000000e+00 0.000000e+00
2.000000e+00 2.790000e+02 1.197000e+03 4.135450e-02 2.384110e-02 5.000000e-04 1.020070e+05 2.733790e+01 -3.803250e-01 0.000000e+00 2.890460e+02 9.694620e-02 1.684130e-09 9.191930e-10 6.953510e-01 2.077020e-01 8.000000e+00 0.000000e+00 0.000000e+00
2.000000e+00 2.810000e+02 1.249000e+03 4.127130e-02 2.468540e-02 5.000000e-04 1.019870e+05 2.814890e+01 -1.823380e-01 0.000000e+00 2.882380e+02 6.967660e-02 6.070340e-10 3.313170e-10 7.163490e-01 2.139740e-01 0.000000e+00 0.000000e+00 0.000000e+00
2.000000e+00 2.630000e+02 3.130000e+02 4.102830e-02 6.733760e-03 5.000000e-04 1.021450e+05 2.461660e+01 4.551520e+00 0.000000e+00 3.387920e+02 6.212420e-02 2.978320e-08 1.625560e-08 7.221640e-01 2.157110e-01 5.000000e+00 0.000000e+00 0.000000e+00
2.000000e+00 2.620000e+02 2.080000e+02 4.084710e-02 4.755150e-03 5.000000e-04 1.021570e+05 2.415490e+01 2.754380e+00 0.000000e+00 2.992350e+02 2.399020e-02 5.462880e-09 2.981620e-09 7.515280e-01 2.244820e-01 5.000000e+00 0.000000e+00 0.000000e+00
2.000000e+00 2.600000e+02 1.040000e+02 4.082730e-02 2.051960e-03 5.000000e-04 1.021520e+05 2.443710e+01 1.218940e+00 0.000000e+00 2.882350e+02 1.696260e-03 1.159040e-10 6.325980e-11 7.686940e-01 2.296100e-01 5.000000e+00 0.000000e+00 0.000000e+00
2.000000e+00 2.610000e+02 1.560000e+02 4.084100e-02 3.471570e-03 5.000000e-04 1.021580e+05 2.455630e+01 1.467890e+00 0.000000e+00 2.905340e+02 8.244730e-03 1.014500e-09 5.537120e-10 7.636520e-01 2.281040e-01 6.000000e+00 0.000000e+00 0.000000e+00
2.000000e+00 2.590000e+02 5.200000e+01 4.081080e-02 1.116400e-03 5.000000e-04 1.021500e+05 2.451510e+01 4.106470e-01 0.000000e+00 2.879570e+02 1.733100e-04 6.968280e-12 3.803260e-12 7.698670e-01 2.299600e-01 6.000000e+00 0.000000e+00 0.000000e+00
2.000000e+00 2.580000e+02 0.000000e+00 4.078970e-02 0.000000e+00 5.000000e-04 1.021480e+05 2.453500e+01 3.522150e-01 0.000000e+00 2.879390e+02 1.541160e-05 3.746540e-13 2.044840e-13 7.699880e-01 2.299960e-01 5.000000e+00 0.000000e+00 0.000000e+00
2.000000e+00 2.650000e+02 5.200000e+02 4.075130e-02 1.013450e-02 5.000000e-04 1.021310e+05 2.396970e+01 4.029160e+00 0.000000e+00 3.962260e+02 1.448870e-01 2.620610e-07 1.430320e-07 6.584370e-01 1.966760e-01 1.100000e+01 0.000000e+00 0.000000e+00
2.000000e+00 2.780000e+02 1.196000e+03 4.073080e-02 2.384780e-02 5.000000e-04 1.020050e+05 2.727630e+01 -7.014040e-01 0.000000e+00 2.904750e+02 1.321500e-01 3.303190e-09 1.802870e-09 6.682450e-01 1.996060e-01 8.000000e+00 0.000000e+00 0.000000e+00