# PROC_ID	PARCEL_ID	CellI	X	Y	Z	p	Ux	Uy	Uz	T	C3H8	CO2	H2O	N2	O2
2	60	2473	-0.0239999	0.012	0.0005	100410	10.3005	0.0477181	0	287.817	1	2.92303e-43	1.59538e-43	0	5.6871e-29
2	61	236	0.0366569	0.00544588	0.0005	102168	27.105	1.50403	0	309.657	0.164446	4.50058e-07	2.4564e-07	0.643377	0.192177
2	62	397	0.037522	0.00947868	0.0005	102101	22.4433	4.44507	0	347.62	0.174399	1.1967e-06	6.53155e-07	0.635712	0.189887
2	63	317	0.037461	0.00782997	0.0005	102115	26.5392	3.5431	0	330.367	0.187381	1.18312e-06	6.45743e-07	0.625716	0.186901
2	64	587	0.0271695	0.0141142	0.0005	102152	19.2899	2.07764	0	556.045	0.509166	6.02514e-05	3.2885e-05	0.377927	0.112814
2	65	666	0.0265496	0.016376	0.0005	102168	19.7802	2.46697	0	537.14	0.668618	2.66577e-05	1.45497e-05	0.255157	0.0761835
2	66	703	0.0232126	0.0175902	0.0005	102180	21.1501	0.416154	0	492.651	0.651539	8.38133e-06	4.5745e-06	0.268313	0.0801352
2	67	2573	-0.0239999	0.017	0.0005	100414	10.3083	-0.0534748	0	287.818	1	7.39097e-44	4.03396e-44	0	1.17837e-29
2	98	2473	-0.0239999	0.012	0.0005	100410	10.3005	0.0477181	0	287.817	1	2.92303e-43	1.59538e-43	0	5.6871e-29
2	99	303	0.0236199	0.00735576	0.0005	102199	27.9215	3.69675	0	319.577	0.207514	1.41675e-06	7.73256e-07	0.610214	0.18227
2	100	276	0.0366084	0.00623611	0.0005	102156	27.0336	2.1156	0	330.136	0.215217	1.14581e-06	6.2538e-07	0.604283	0.180499
2	101	432	0.0321208	0.0101983	0.0005	102121	26.9784	-2.4806	0	457.537	0.292924	1.43951e-05	7.85681e-06	0.544445	0.162609
2	102	745	0.0257989	0.0181441	0.0005	102141	19.6107	4.91497	0	476.768	0.689137	5.4304e-06	2.96389e-06	0.239363	0.0714914
2	103	785	0.0252859	0.0199567	0.0005	102113	18.6397	6.89544	0	438.856	0.639264	2.46101e-06	1.34321e-06	0.277766	0.082966
2	104	695	0.0158357	0.0179933	0.0005	102221	18.0721	5.02241	0	463.811	0.749857	9.89689e-07	5.40168e-07	0.19261	0.0575316
2	105	2573	-0.0239999	0.017	0.0005	100414	10.3083	-0.0534748	0	287.818	1	7.39097e-44	4.03396e-44	0	1.17837e-29
2	136	2473	-0.0239999	0.012	0.0005	100410	10.3005	0.0477181	0	287.817	1	2.92303e-43	1.59538e-43	0	5.6871e-29
2	137	222	0.0221086	0.00533376	0.0005	102221	30.0855	1.37276	0	298.329	0.144856	2.7184e-07	1.48369e-07	0.658461	0.196683
2	138	458	0.0185311	0.0116349	0.0005	102214	26.8612	-4.86158	0	621.714	0.516545	0.000180892	9.87299e-05	0.372214	0.110962
2	139	656	0.0167926	0.0166273	0.0005	102221	19.7563	4.63285	0	540.331	0.788027	4.19454e-06	2.28937e-06	0.163218	0.0487483
2	140	657	0.0170302	0.0169229	0.0005	102221	17.8608	3.32697	0	515.159	0.699481	6.73408e-06	3.67543e-06	0.231398	0.0691106
2	141	696	0.0160058	0.0177017	0.0005	102202	17.1943	4.60321	0	437.489	0.661922	1.24653e-06	6.80352e-07	0.26032	0.0777563
2	142	692	0.0123243	0.0179482	0.0005	102260	17.9921	1.89163	0	439.353	0.723971	9.48593e-08	5.17738e-08	0.212542	0.0634866
2	143	2573	-0.0239999	0.017	0.0005	100414	10.3083	-0.0534748	0	287.818	1	7.39097e-44	4.03396e-44	0	1.17837e-29
2	174	2473	-0.0239999	0.012	0.0005	100410	10.3005	0.0477181	0	287.817	1	2.92303e-43	1.59538e-43	0	5.6871e-29
2	175	573	0.0133785	0.0145168	0.0005	102252	21.3132	5.13414	0	643.391	0.596956	8.32481e-05	4.54365e-05	0.310322	0.0925928
2	176	221	0.0218857	0.00564356	0.0005	102236	30.3275	-0.888432	0	315.733	0.247887	7.35775e-07	4.01583e-07	0.579127	0.172985
2	177	340	0.0204817	0.00826012	0.0005	102235	28.5038	-8.18565	0	510.005	0.414068	3.17685e-05	1.73391e-05	0.45116	0.134724
2	178	614	0.014624	0.0152255	0.0005	102239	21.9946	3.38321	0	571.562	0.812639	8.71005e-06	4.75391e-06	0.144266	0.0430818
2	179	615	0.0155079	0.0158389	0.0005	102250	21.8253	2.82835	0	570.201	0.813813	9.92277e-06	5.41581e-06	0.143361	0.0428102
2	180	649	0.0097696	0.0169703	0.0005	102289	15.4963	2.06216	0	500.671	0.771046	9.584e-08	5.23091e-08	0.176295	0.0526594
2	181	2573	-0.0239999	0.017	0.0005	100414	10.3083	-0.0534748	0	287.818	1	7.39097e-44	4.03396e-44	0	1.17837e-29
2	212	2473	-0.0239999	0.012	0.0005	100410	10.3005	0.0477181	0	287.817	1	2.92303e-43	1.59538e-43	0	5.6871e-29
2	213	286	0.00614619	0.00713175	0.0005	102428	27.3129	-7.14824	0	301.789	0.317065	1.35616e-11	7.40185e-12	0.52586	0.157075
2	214	610	0.0103361	0.0151425	0.0005	102268	15.2833	4.32595	0	564.996	0.777484	5.67291e-06	3.09625e-06	0.171336	0.0511713
2	215	610	0.0104494	0.0156909	0.0005	102268	15.2833	4.32595	0	564.996	0.777484	5.67291e-06	3.09625e-06	0.171336	0.0511713
2	216	652	0.0123404	0.0163534	0.0005	102249	22.028	2.67745	0	551.576	0.826625	1.03634e-06	5.65628e-07	0.133499	0.039875
2	217	651	0.0118043	0.0167793	0.0005	102265	20.568	2.58417	0	558.229	0.816594	8.33647e-07	4.55001e-07	0.141222	0.0421822
2	218	605	0.0053999	0.0158409	0.0005	102334	13.2661	3.58866	0	367.474	0.910731	2.96568e-11	1.61866e-11	0.0687374	0.020532
2	219	2573	-0.0239999	0.017	0.0005	100414	10.3083	-0.0534748	0	287.818	1	7.39097e-44	4.03396e-44	0	1.17837e-29
2	250	2473	-0.0239999	0.012	0.0005	100410	10.3005	0.0477181	0	287.817	1	2.92303e-43	1.59538e-43	0	5.6871e-29
2	251	405	0.00521056	0.0109067	0.0005	102451	21.3184	-5.64594	0	371.258	0.654086	2.13842e-10	1.16714e-10	0.266354	0.0795603
2	252	326	0.00640084	0.00826996	0.0005	102401	24.5562	-9.69506	0	342.644	0.515679	1.00617e-10	5.49163e-11	0.372927	0.111394
2	253	446	0.00639958	0.0112719	0.0005	102384	19.8085	-5.96295	0	424.117	0.714876	7.34112e-09	4.00675e-09	0.219546	0.0655786
2	254	525	0.00537195	0.0136259	0.0005	102399	11.9497	2.37013	0	404.277	0.824359	3.14305e-09	1.71546e-09	0.135243	0.0403973
2	255	565	0.00554844	0.0146805	0.0005	102378	12.701	2.17749	0	375.427	0.895167	4.03715e-10	2.20346e-10	0.0807214	0.0241116
2	256	643	0.00357831	0.016274	0.0005	102321	9.97728	6.06488	0	288.672	0.905446	3.5766e-14	1.9521e-14	0.072807	0.0217475
2	257	2573	-0.0239999	0.017	0.0005	100414	10.3083	-0.0534748	0	287.818	1	7.39097e-44	4.03396e-44	0	1.17837e-29
2	288	2473	-0.0239999	0.012	0.0005	100410	10.3005	0.0477181	0	287.817	1	2.92303e-43	1.59538e-43	0	5.6871e-29
2	289	480	0.000705641	0.0129817	0.0005	102240	-2.48117	-1.64718	0	287.605	0.634892	1.68757e-15	9.21069e-16	0.281134	0.083975
2	290	485	0.00504138	0.0121108	0.0005	102431	21.1756	0.238139	0	357.637	0.851724	7.18154e-10	3.91966e-10	0.114172	0.0341034
2	291	524	0.00419464	0.0130667	0.0005	102407	11.2686	2.31634	0	339.684	0.900263	1.11925e-10	6.10883e-11	0.0767972	0.0229394
2	292	563	0.00392693	0.0148248	0.0005	102394	10.3596	5.86982	0	288.28	0.969159	1.03956e-12	5.67389e-13	0.0237476	0.00709343
2	293	603	0.00392859	0.0154046	0.0005	102370	13.0701	3.42848	0	288.252	0.968405	1.52412e-13	8.31856e-14	0.0243282	0.00726685
2	294	641	0.00112844	0.0161376	0.0005	102227	9.69047	1.56561	0	287.985	0.932114	1.32642e-16	7.23956e-17	0.0522726	0.0156139
2	295	2573	-0.0239999	0.017	0.0005	100414	10.3083	-0.0534748	0	287.818	1	7.39097e-44	4.03396e-44	0	1.17837e-29
2	326	2473	-0.0239999	0.012	0.0005	100410	10.3005	0.0477181	0	287.817	1	2.92303e-43	1.59538e-43	0	5.6871e-29
2	327	2451	-0.0017403	0.0128653	0.0005	102013	1.42201	2.23203	0	287.902	0.997763	7.31172e-18	3.99071e-18	0.00172252	0.000514518
2	328	520	0.000763883	0.0138029	0.0005	102076	4.3715	7.03431	0	287.837	0.925217	5.10881e-16	2.78837e-16	0.0575829	0.0172001
2	329	561	0.00117574	0.0143228	0.0005	102308	9.83115	5.65857	0	287.924	0.980023	1.48746e-15	8.1185e-16	0.0153826	0.00459481
2	330	561	0.00119624	0.0148735	0.0005	102308	9.83115	5.65857	0	287.924	0.980023	1.48746e-15	8.1185e-16	0.0153826	0.00459481
2	331	600	0.000930371	0.0155416	0.0005	102161	8.11629	2.35319	0	287.929	0.994691	6.83027e-18	3.72794e-18	0.00408759	0.00122097
2	332	2551	-0.00162601	0.0161788	0.0005	102001	4.64987	0.062169	0	287.907	0.999651	1.63723e-19	8.93593e-20	0.000269069	8.03713e-05
2	333	2573	-0.0239999	0.017	0.0005	100414	10.3083	-0.0534748	0	287.818	1	7.39097e-44	4.03396e-44	0	1.17837e-29
2	364	2473	-0.0239999	0.012	0.0005	100410	10.3005	0.0477181	0	287.817	1	2.92303e-43	1.59538e-43	0	5.6871e-29
2	365	2454	-0.0043529	0.0128064	0.0005	101731	3.11469	0.278015	0	287.85	1	7.50668e-22	4.09712e-22	2.70253e-07	8.07249e-08
2	366	2477	-0.00216281	0.0135267	0.0005	101951	5.27139	0.973524	0	287.884	0.999989	3.199e-20	1.746e-20	8.46789e-06	2.52937e-06
2	367	2501	-0.00195095	0.0141905	0.0005	102030	5.58793	1.29818	0	287.896	0.999988	3.28186e-20	1.79123e-20	9.40563e-06	2.80947e-06
2	368	2501	-0.00193788	0.014856	0.0005	102030	5.58793	1.29818	0	287.896	0.999988	3.28186e-20	1.79123e-20	9.40563e-06	2.80947e-06
2	369	2527	-0.0021305	0.0155205	0.0005	101917	5.93971	0.51282	0	287.878	0.999998	1.11571e-21	6.08948e-22	1.61582e-06	4.82646e-07
2	370	2554	-0.00432454	0.0161999	0.0005	101731	3.92551	0.072265	0	287.852	1	7.48092e-23	4.08305e-23	1.08361e-07	3.23676e-08
2	371	2573	-0.0239999	0.017	0.0005	100414	10.3083	-0.0534748	0	287.818	1	7.39097e-44	4.03396e-44	0	1.17837e-29
2	402	2473	-0.0239999	0.012	0.0005	100410	10.3005	0.0477181	0	287.817	1	2.92303e-43	1.59538e-43	0	5.6871e-29
2	403	2456	-0.00683464	0.0127934	0.0005	101524	3.89931	0.044488	0	287.814	1	2.76651e-24	1.50995e-24	1.65133e-09	4.93258e-10
2	404	2479	-0.00497128	0.0134909	0.0005	101732	5.32954	0.0925049	0	287.845	1	5.14095e-23	2.80591e-23	2.47911e-08	7.40513e-09
2	405	2504	-0.00481554	0.0141645	0.0005	101729	5.21735	0.367062	0	287.841	1	1.36471e-24	7.44853e-25	9.92994e-10	2.96611e-10
2	406	2504	-0.00481245	0.014843	0.0005	101729	5.21735	0.367062	0	287.841	1	1.36471e-24	7.44853e-25	9.92994e-10	2.96611e-10
2	407	2529	-0.00496131	0.0155221	0.0005	101732	5.5213	0.173937	0	287.845	1	5.73151e-24	3.12823e-24	8.07615e-09	2.41236e-09
2	408	2556	-0.00682918	0.0162061	0.0005	101550	4.12521	0.0412653	0	287.819	1	4.11057e-25	2.24353e-25	5.64814e-10	1.68714e-10
2	409	2573	-0.0239999	0.017	0.0005	100414	10.3083	-0.0534748	0	287.818	1	7.39097e-44	4.03396e-44	0	1.17837e-29
2	440	2473	-0.0239999	0.012	0.0005	100410	10.3005	0.0477181	0	287.817	1	2.92303e-43	1.59538e-43	0	5.6871e-29
2	441	2459	-0.00954205	0.01278	0.0005	101267	4.79756	0.0848037	0	287.776	1	1.29493e-27	7.06767e-28	9.45355e-13	2.85362e-13
2	442	2482	-0.00795985	0.0134731	0.0005	101436	5.50056	0.0987152	0	287.794	1	1.75745e-26	9.59209e-27	1.23633e-11	3.69602e-12
2	443	2507	-0.00786067	0.014158	0.0005	101444	5.69376	0.0634138	0	287.794	1	4.76856e-28	2.60266e-28	3.53717e-13	1.07299e-13
2	444	2507	-0.00786001	0.014843	0.0005	101444	5.69376	0.0634138	0	287.794	1	4.76856e-28	2.60266e-28	3.53717e-13	1.07299e-13
2	445	2532	-0.0079586	0.0155267	0.0005	101450	5.5703	0.0719124	0	287.797	1	2.256e-27	1.23132e-27	2.77456e-12	8.31064e-13
2	446	2559	-0.00953836	0.0162193	0.0005	101267	4.83829	-0.059594	0	287.776	1	1.59431e-28	8.70166e-29	1.74305e-13	5.50768e-14
2	447	2573	-0.0239999	0.017	0.0005	100414	10.3083	-0.0534748	0	287.818	1	7.39097e-44	4.03396e-44	0	1.17837e-29
2	478	2473	-0.0239999	0.012	0.0005	100410	10.3005	0.0477181	0	287.817	1	2.92303e-43	1.59538e-43	0	5.6871e-29
2	479	2462	-0.0120543	0.0127718	0.0005	101039	5.5929	0.0474661	0	287.749	1	9.93193e-31	5.42081e-31	0	2.45902e-16
2	480	2485	-0.01077	0.0134641	0.0005	101188	6.06668	0.0603507	0	287.765	1	1.14328e-29	6.23995e-30	0	2.72089e-15
2	481	2510	-0.0107106	0.0141542	0.0005	101184	6.03313	0.028078	0	287.763	1	3.723e-31	2.032e-31	0	9.46587e-17
2	482	2510	-0.0107105	0.0148458	0.0005	101184	6.03313	0.028078	0	287.763	1	3.723e-31	2.032e-31	0	9.46587e-17
2	483	2535	-0.0107698	0.0155361	0.0005	101180	6.09432	-0.029621	0	287.764	1	1.97397e-30	1.07739e-30	0	5.83324e-16
2	484	2562	-0.0120537	0.0162281	0.0005	101012	5.62625	-0.0499092	0	287.745	1	1.40848e-31	7.68743e-32	0	3.89047e-17
2	485	2573	-0.0239999	0.017	0.0005	100414	10.3083	-0.0534748	0	287.818	1	7.39097e-44	4.03396e-44	0	1.17837e-29
2	516	2474	-0.024	0.012	0.0005	100386	10.7976	0.034295	0	287.997	1	5.84837e-45	3.19201e-45	0	1.15112e-30
2	517	2464	-0.0147226	0.0127581	0.0005	100875	6.35662	0.0540485	0	287.73	1	8.33432e-33	4.54884e-33	0	2.08825e-18
2	518	2488	-0.0136849	0.0134551	0.0005	100954	6.8181	0.0265766	0	287.735	1	7.09471e-33	3.87226e-33	0	1.78202e-18
2	519	2513	-0.0136536	0.014151	0.0005	100947	6.78715	-0.0124174	0	287.734	1	2.00717e-34	1.09551e-34	0	4.87858e-20
2	520	2513	-0.0136536	0.014849	0.0005	100947	6.78715	-0.0124174	0	287.734	1	2.00717e-34	1.09551e-34	0	4.87858e-20
2	521	2538	-0.0136849	0.0155449	0.0005	100941	6.82436	-0.0433967	0	287.733	1	1.40968e-33	7.69397e-34	0	3.53794e-19
2	522	2564	-0.0147224	0.0162419	0.0005	100862	6.34268	-0.0601556	0	287.728	1	1.52473e-33	8.32191e-34	0	3.90284e-19
2	523	2574	-0.024	0.017	0.0005	100389	10.7995	-0.0411515	0	287.994	1	3.08405e-45	1.68326e-45	0	4.74196e-31
2	554	2474	-0.0240029	0.012	0.0005	100386	10.7976	0.034295	0	287.997	1	5.84837e-45	3.19201e-45	0	1.15112e-30
2	555	2467	-0.0173492	0.0127458	0.0005	100669	7.58715	0.0731111	0	287.718	1	4.07054e-36	2.22168e-36	0	1.01012e-21
2	556	2491	-0.0165939	0.0134458	0.0005	100731	7.77258	0.0387441	0	287.72	1	4.40456e-36	2.40399e-36	0	1.10052e-21
2	557	2516	-0.0165801	0.0141478	0.0005	100732	7.69721	0.00592215	0	287.72	1	1.61069e-37	8.7911e-38	0	3.77105e-23
2	558	2516	-0.0165801	0.0148521	0.0005	100732	7.69721	0.00592215	0	287.72	1	1.61069e-37	8.7911e-38	0	3.77105e-23
2	559	2541	-0.0165939	0.0155541	0.0005	100733	7.75735	-0.0296908	0	287.72	1	9.94671e-37	5.42887e-37	0	2.18414e-22
2	560	2567	-0.0173496	0.0162542	0.0005	100678	7.57476	-0.0657201	0	287.719	1	1.16596e-36	6.36374e-37	0	2.57742e-22
2	561	2574	-0.0240029	0.017	0.0005	100389	10.7995	-0.0411515	0	287.994	1	3.08405e-45	1.68326e-45	0	4.74196e-31
2	592	2474	-0.0240318	0.012	0.0005	100386	10.7976	0.034295	0	287.997	1	5.84837e-45	3.19201e-45	0	1.15112e-30
2	593	2469	-0.0198995	0.0127331	0.0005	100563	8.44116	0.077759	0	287.669	1	2.793e-38	1.52441e-38	0	6.49974e-24
2	594	2494	-0.0194085	0.0134382	0.0005	100565	8.79224	0.0361859	0	287.666	1	1.70351e-39	9.29766e-40	0	3.71499e-25
2	595	2519	-0.0194062	0.0141453	0.0005	100568	8.7421	0.0101498	0	287.668	1	4.62558e-41	2.52462e-41	0	9.19235e-27
2	596	2519	-0.0194062	0.0148547	0.0005	100568	8.7421	0.0101498	0	287.668	1	4.62558e-41	2.52462e-41	0	9.19235e-27
2	597	2544	-0.0194085	0.0155619	0.0005	100572	8.80089	-0.019245	0	287.667	1	3.67329e-40	2.00486e-40	0	6.87207e-26
2	598	2569	-0.0198998	0.0162667	0.0005	100573	8.45529	-0.0710972	0	287.672	1	6.77468e-39	3.69759e-39	0	1.3487e-24
2	599	2574	-0.0240318	0.017	0.0005	100389	10.7995	-0.0411515	0	287.994	1	3.08405e-45	1.68326e-45	0	4.74196e-31
2	630	2474	-0.0242169	0.012	0.0005	100386	10.7976	0.034295	0	287.997	1	5.84837e-45	3.19201e-45	0	1.15112e-30
2	631	2472	-0.0226124	0.0127197	0.0005	100434	9.84536	0.0546508	0	287.664	1	6.09228e-42	3.32514e-42	0	1.22571e-27
2	632	2497	-0.022381	0.0134313	0.0005	100436	9.96835	0.0105862	0	287.663	1	3.45553e-43	1.88602e-43	0	6.55885e-29
2	633	2522	-0.0223797	0.0141435	0.0005	100436	9.94484	-0.00608281	0	287.663	1	1.08315e-44	5.91181e-45	0	1.94575e-30
2	634	2522	-0.0223797	0.0148566	0.0005	100436	9.94484	-0.00608281	0	287.663	1	1.08315e-44	5.91181e-45	0	1.94575e-30
2	635	2547	-0.0223811	0.0155688	0.0005	100439	9.97647	-0.0201378	0	287.665	1	7.73264e-44	4.22044e-44	0	1.24082e-29
2	636	2572	-0.022612	0.01628	0.0005	100440	9.85895	-0.0580882	0	287.666	1	1.46038e-42	7.97069e-43	0	2.45442e-28
2	637	2574	-0.0242169	0.017	0.0005	100389	10.7995	-0.0411515	0	287.994	1	3.08405e-45	1.68326e-45	0	4.74196e-31
