#           y             T         TMean   TPrime2Mean           U_x           U_y           U_z       UMean_x       UMean_y       UMean_z UPrime2Mea... UPrime2Mea... UPrime2Mea... UPrime2Mea... UPrime2Mea... UPrime2Mea...            O2           H2O          C3H8             p         pMean   pPrime2Mean           CO2
         0.02       287.798       288.083      0.157518       24.8533      0.747628             0         21.61     -0.809689             0       42.2893      -2.34624             0       20.3192             0             0      0.218852   3.27514e-17     0.0484685        102496        103158        170629   6.00067e-17
    0.0201677       287.802       288.081      0.152997       24.8185      0.718173             0       21.6233      -0.78735             0       42.1379      -1.54306             0         20.67             0             0      0.220295   3.03108e-17     0.0421955        102496        103157        171273    5.5535e-17
    0.0203353       287.805       288.079      0.148476       24.7837      0.688718             0       21.6367     -0.765012             0       41.9865     -0.739882             0       21.0209             0             0      0.221738   2.78701e-17     0.0359224        102495        103157        171917   5.10633e-17
     0.020503       287.808       288.077      0.143955       24.7489      0.659263             0       21.6501     -0.742674             0       41.8351     0.0632982             0       21.3717             0             0      0.223181   2.54295e-17     0.0296494        102495        103156        172561   4.65915e-17
    0.0206707       287.811       288.074      0.139435       24.7141      0.629808             0       21.6634     -0.720336             0       41.6837      0.866478             0       21.7226             0             0      0.224623   2.29888e-17     0.0233763        102494        103155        173205   4.21198e-17
    0.0208383       287.814       288.072      0.134914       24.6793      0.600353             0       21.6768     -0.697997             0       41.5323       1.66966             0       22.0734             0             0      0.226066   2.05482e-17     0.0171032        102494        103155        173849    3.7648e-17
     0.021006       287.818        288.07      0.130421       24.6433      0.572013             0       21.6847      -0.67532             0       41.3861       2.47639             0       22.4266             0             0      0.227469   1.82449e-17     0.0110056        102493        103154        174495    3.3428e-17
    0.0211737       287.828       288.073      0.126678       24.5767      0.573706             0       21.5447     -0.643525             0       41.3807       3.37872             0       22.8445             0             0      0.227785   1.96394e-17    0.00962903        102493        103153        175178    3.5983e-17
    0.0213413       287.838       288.076      0.122935       24.5101      0.575399             0       21.4047      -0.61173             0       41.3753       4.28105             0       23.2623             0             0      0.228102   2.10338e-17    0.00825249        102493        103153        175861   3.85379e-17
     0.021509       287.849       288.078      0.119193       24.4435      0.577092             0       21.2648     -0.579934             0       41.3699       5.18338             0       23.6801             0             0      0.228419   2.24283e-17    0.00687594        102493        103152        176544   4.10929e-17
    0.0216767       287.859       288.081       0.11545       24.3768      0.578784             0       21.1248     -0.548139             0       41.3645       6.08571             0       24.0979             0             0      0.228735   2.38228e-17    0.00549939        102493        103151        177227   4.36478e-17
    0.0218443       287.869       288.084      0.111707       24.3102      0.580477             0       20.9848     -0.516344             0       41.3592       6.98804             0       24.5158             0             0      0.229052   2.52173e-17    0.00412285        102493        103151        177910   4.62028e-17
     0.022012       287.879       288.087      0.108086       24.2294      0.582879             0       20.8346      -0.48597             0       41.3434       7.88208             0       24.9403             0             0      0.229343   2.69386e-17    0.00285437        102493        103150        178598   4.93565e-17
    0.0221797       287.885       288.094      0.106031       23.9651      0.594476             0       20.5511     -0.474024             0       41.1931       8.66866             0       25.4519             0             0      0.229313    3.2895e-17    0.00298626        102493        103149        179357   6.02697e-17
    0.0223473       287.891         288.1      0.103976       23.7007      0.606072             0       20.2676     -0.462077             0       41.0428       9.45524             0       25.9635             0             0      0.229283   3.88514e-17    0.00311816        102494        103149        180116   7.11829e-17
     0.022515       287.898       288.107      0.101922       23.4364      0.617669             0       19.9842      -0.45013             0       40.8924       10.2418             0       26.4751             0             0      0.229252   4.48077e-17    0.00325005        102494        103148        180875   8.20961e-17
    0.0226827       287.904       288.114     0.0998669       23.1721      0.629265             0       19.7007     -0.438183             0       40.7421       11.0284             0       26.9868             0             0      0.229222   5.07641e-17    0.00338195        102494        103147        181634   9.30093e-17
    0.0228504        287.91        288.12     0.0978122       22.9078      0.640862             0       19.4172     -0.426237             0       40.5918        11.815             0       27.4984             0             0      0.229192   5.67205e-17    0.00351384        102495        103147        182393   1.03923e-16
     0.023018       287.916       288.127     0.0959903       22.6027      0.649502             0        19.122      -0.41796             0       40.4077       12.5712             0       28.0341             0             0       0.22914   6.37272e-17    0.00373746        102495        103146        183162    1.1676e-16
    0.0231857        287.92       288.137     0.0961014       21.9593       0.63359             0       18.7292     -0.440163             0       39.9428       13.0751             0       28.7702             0             0      0.228914   7.94571e-17    0.00472292        102496        103145        184020    1.4558e-16
    0.0233534       287.924       288.147     0.0962126       21.3158      0.617678             0       18.3364     -0.462367             0       39.4779        13.579             0       29.5063             0             0      0.228687    9.5187e-17    0.00570837        102496        103145        184877     1.744e-16
     0.023521       287.928       288.156     0.0963237       20.6724      0.601766             0       17.9436     -0.484571             0        39.013       14.0828             0       30.2423             0             0       0.22846   1.10917e-16    0.00669382        102496        103144        185735    2.0322e-16
    0.0236887       287.933       288.166     0.0964348        20.029      0.585854             0       17.5508     -0.506775             0       38.5481       14.5867             0       30.9784             0             0      0.228234   1.26647e-16    0.00767928        102497        103144        186592    2.3204e-16
    0.0238564       287.937       288.176      0.096546       19.3856      0.569941             0        17.158     -0.528979             0       38.0832       15.0906             0       31.7145             0             0      0.228007   1.42377e-16    0.00866473        102497        103143        187450   2.60861e-16
     0.024024       287.941       288.185     0.0968535       18.7097       0.54571             0       16.7657     -0.557283             0       37.6663       15.5447             0       32.4858             0             0      0.227675   1.63501e-16     0.0101104        102498        103142        188330   2.99564e-16
    0.0241917       287.945       288.196     0.0983349       17.8397      0.471738             0       16.3767     -0.622067             0       37.5364       15.7011             0       33.4673             0             0      0.226709   2.16877e-16     0.0143078        102498        103141        189347   3.97359e-16
    0.0243594       287.949       288.206     0.0998163       16.9697      0.397766             0       15.9877      -0.68685             0       37.4065       15.8575             0       34.4488             0             0      0.225744   2.70253e-16     0.0185051        102497        103141        190363   4.95154e-16
     0.024527       287.952       288.217      0.101298       16.0998      0.323794             0       15.5987     -0.751634             0       37.2766       16.0138             0       35.4304             0             0      0.224778   3.23629e-16     0.0227025        102497        103140        191379   5.92949e-16
    0.0246947       287.956       288.227      0.102779       15.2298      0.249822             0       15.2097     -0.816417             0       37.1467       16.1702             0       36.4119             0             0      0.223813   3.77006e-16     0.0268999        102497        103139        192396   6.90745e-16
    0.0248624        287.96       288.237      0.104261       14.3598       0.17585             0       14.8206     -0.881201             0       37.0168       16.3266             0       37.3935             0             0      0.222848   4.30382e-16     0.0310972        102497        103138        193412    7.8854e-16
      0.02503       287.965       288.247      0.105751       13.5544     0.0672459             0       14.4503     -0.952066             0       36.9004       16.4596             0       38.4159             0             0      0.221808   4.84612e-16     0.0356195        102497        103138        194463   8.87899e-16
    0.0251977       287.976       288.256      0.107286       13.0448      -0.20009             0       14.1658      -1.05081             0       36.8454       16.4853             0       39.6257             0             0      0.220425   5.42755e-16     0.0416309        102496        103136        195670   9.94429e-16
    0.0253654       287.987       288.264      0.108821       12.5353     -0.467426             0       13.8813      -1.14954             0       36.7905        16.511             0       40.8355             0             0      0.219042   6.00898e-16     0.0476422        102495        103135        196877   1.10096e-15
     0.025533       287.999       288.272      0.110356       12.0257     -0.734762             0       13.5968      -1.24828             0       36.7355       16.5367             0       42.0453             0             0       0.21766   6.59042e-16     0.0536536        102495        103134        198084   1.20749e-15
    0.0257007        288.01        288.28       0.11189       11.5162       -1.0021             0       13.3123      -1.34702             0       36.6806       16.5624             0       43.2551             0             0      0.216277   7.17185e-16      0.059665        102494        103133        199291   1.31402e-15
    0.0258684       288.021       288.289      0.113425       11.0066      -1.26943             0       13.0278      -1.44576             0       36.6256       16.5881             0       44.4649             0             0      0.214894   7.75328e-16     0.0656764        102493        103131        200498   1.42055e-15
     0.026036       288.032       288.296      0.114808       10.5611       -1.5491             0       12.7568      -1.54801             0       36.4518       16.6004             0       45.7128             0             0      0.213642   8.23544e-16     0.0711205        102492        103130        201748   1.50889e-15
    0.0262037        288.04         288.3      0.115635       10.3492      -1.87382             0       12.5355      -1.66306             0       35.8437       16.5636             0       47.1003             0             0      0.212867   8.35499e-16     0.0744922        102491        103128        203154   1.53079e-15
    0.0263714       288.048       288.304      0.116463       10.1373      -2.19853             0       12.3141      -1.77811             0       35.2356       16.5268             0       48.4878             0             0      0.212091   8.47453e-16      0.077864        102489        103127        204561   1.55269e-15
     0.026539       288.056       288.307       0.11729       9.92536      -2.52325             0       12.0927      -1.89315             0       34.6275         16.49             0       49.8753             0             0      0.211316   8.59408e-16     0.0812358        102488        103125        205967    1.5746e-15
    0.0267067       288.064       288.311      0.118118       9.71346      -2.84796             0       11.8714       -2.0082             0       34.0194       16.4532             0       51.2628             0             0       0.21054   8.71362e-16     0.0846076        102487        103124        207373    1.5965e-15
    0.0268744       288.072       288.315      0.118945       9.50156      -3.17267             0         11.65      -2.12325             0       33.4113       16.4164             0       52.6503             0             0      0.209765   8.83317e-16     0.0879793        102485        103122        208780    1.6184e-15
     0.027042       288.076       288.318      0.119697       9.26889      -3.47879             0       11.4218      -2.23882             0       32.7483       16.3397             0       54.0714             0             0       0.20917   8.88675e-16     0.0905662        102484        103121        210212   1.62822e-15
    0.0272097       288.068       288.319      0.120223       8.97416      -3.72933             0        11.173      -2.35595             0       31.9209       16.1439             0       55.5932             0             0      0.209114   8.74324e-16     0.0908077        102482        103119        211722   1.60192e-15
    0.0273774       288.061        288.32       0.12075       8.67943      -3.97987             0       10.9242      -2.47308             0       31.0936       15.9481             0        57.115             0             0      0.209059   8.59972e-16     0.0910492        102480        103117        213232   1.57563e-15
     0.027545       288.053       288.321      0.121276        8.3847      -4.23041             0       10.6754      -2.59021             0       30.2663       15.7523             0       58.6368             0             0      0.209003    8.4562e-16     0.0912908        102478        103115        214742   1.54933e-15
    0.0277127       288.045       288.323      0.121802       8.08997      -4.48095             0       10.4266      -2.70734             0       29.4389       15.5565             0       60.1586             0             0      0.208948   8.31269e-16     0.0915323        102476        103113        216252   1.52304e-15
    0.0278804       288.037       288.324      0.122329       7.79524      -4.73148             0       10.1778      -2.82447             0       28.6116       15.3607             0       61.6804             0             0      0.208892   8.16917e-16     0.0917738        102474        103111        217763   1.49674e-15
     0.028048       288.029       288.325      0.122849       7.49054      -4.98144             0       9.92241        -2.943             0       27.7647       15.1138             0       63.1942             0             0      0.208915   8.02606e-16      0.091675        102472        103109        219243   1.47052e-15
    0.0282157        288.02       288.326      0.123355         7.161      -5.22992             0       9.65057      -3.06504             0       26.8691       14.7397             0        64.688             0             0      0.209132   7.88396e-16     0.0907291        102470        103107        220648   1.44449e-15
    0.0283834       288.011       288.327      0.123862       6.83147      -5.47841             0       9.37873      -3.18708             0       25.9734       14.3656             0       66.1818             0             0       0.20935   7.74187e-16     0.0897833        102468        103105        222053   1.41845e-15
    0.0285511       288.002       288.328      0.124368       6.50193       -5.7269             0       9.10688      -3.30912             0       25.0778       13.9915             0       67.6756             0             0      0.209567   7.59977e-16     0.0888374        102465        103104        223458   1.39242e-15
    0.0287187       287.994       288.329      0.124874        6.1724      -5.97539             0       8.83504      -3.43116             0       24.1822       13.6174             0       69.1694             0             0      0.209785   7.45767e-16     0.0878915        102463        103102        224863   1.36639e-15
    0.0288864       287.985       288.329       0.12538       5.84286      -6.22388             0       8.56319       -3.5532             0       23.2866       13.2433             0       70.6631             0             0      0.210003   7.31558e-16     0.0869456        102461        103100        226269   1.34035e-15
    0.0290541       287.978        288.33      0.125784       5.50973      -6.45846             0       8.28767       -3.6761             0       22.4224       12.8059             0       72.0729             0             0      0.210188   7.20043e-16     0.0861409        102459        103098        227568   1.31925e-15
    0.0292217       287.976       288.331      0.125974       5.16904      -6.66379             0       8.00441      -3.80082             0       21.6242       12.2351             0        73.306             0             0      0.210304   7.14192e-16      0.085633        102456        103096        228647   1.30853e-15
    0.0293894       287.974       288.332      0.126163       4.82835      -6.86912             0       7.72116      -3.92555             0        20.826       11.6644             0       74.5391             0             0      0.210421   7.08341e-16     0.0851251        102454        103094        229725   1.29781e-15
    0.0295571       287.972       288.332      0.126353       4.48767      -7.07445             0       7.43791      -4.05027             0       20.0279       11.0937             0       75.7723             0             0      0.210538   7.02489e-16     0.0846171        102451        103093        230803   1.28709e-15
    0.0297247        287.97       288.333      0.126542       4.14698      -7.27978             0       7.15465        -4.175             0       19.2297       10.5229             0       77.0054             0             0      0.210655   6.96638e-16     0.0841092        102449        103091        231881   1.27637e-15
    0.0298924       287.968       288.334      0.126732       3.80629      -7.48511             0        6.8714      -4.29972             0       18.4315       9.95218             0       78.2385             0             0      0.210772   6.90787e-16     0.0836013        102447        103089        232959   1.26565e-15
    0.0300601       287.966       288.334      0.126819         3.464       -7.6855             0       6.58425      -4.42306             0       17.8089       9.31115             0       79.3235             0             0      0.210807   6.86905e-16     0.0834459        102444        103087        233870   1.25854e-15
    0.0302277       287.966       288.335      0.126721       3.11884      -7.87704             0       6.29012      -4.54392             0       17.5008       8.54418             0       80.1433             0             0      0.210698   6.86552e-16     0.0839221        102442        103086        234481   1.25789e-15
    0.0303954       287.965       288.335      0.126624       2.77368      -8.06858             0       5.99599      -4.66477             0       17.1927       7.77721             0        80.963             0             0      0.210588   6.86199e-16     0.0843983        102440        103085        235091   1.25725e-15
    0.0305631       287.965       288.336      0.126526       2.42852      -8.26012             0       5.70187      -4.78563             0       16.8847       7.01023             0       81.7828             0             0      0.210479   6.85846e-16     0.0848744        102437        103083        235702    1.2566e-15
    0.0307307       287.964       288.336      0.126429       2.08336      -8.45165             0       5.40774      -4.90649             0       16.5766       6.24326             0       82.6025             0             0      0.210369   6.85493e-16     0.0853506        102435        103082        236312   1.25595e-15
    0.0308984       287.964       288.337      0.126331        1.7382      -8.64319             0       5.11361      -5.02735             0       16.2686       5.47629             0       83.4223             0             0       0.21026    6.8514e-16     0.0858268        102433        103081        236923   1.25531e-15
    0.0310661       287.963       288.337      0.126239       1.39694      -8.82317             0       4.81967      -5.14473             0       16.1541       4.69922             0        84.056             0             0       0.21006   6.86985e-16     0.0866964        102430        103080        237357   1.25868e-15
    0.0312337       287.962       288.338      0.126153       1.06167      -8.98535             0         4.526      -5.25678             0       16.3374       3.90661             0       84.4035             0             0      0.209721   6.92208e-16     0.0881708        102428        103079        237519   1.26825e-15
    0.0314014        287.96       288.338      0.126068      0.726395      -9.14754             0       4.23233      -5.36883             0       16.5207         3.114             0       84.7511             0             0      0.209382   6.97432e-16     0.0896453        102426        103078        237681   1.27782e-15
    0.0315691       287.959       288.338      0.125983      0.391125      -9.30972             0       3.93866      -5.48088             0        16.704       2.32139             0       85.0986             0             0      0.209042   7.02655e-16     0.0911197        102423        103077        237843   1.28739e-15
    0.0317367       287.957       288.339      0.125897     0.0558545      -9.47191             0       3.64499      -5.59293             0       16.8873       1.52879             0       85.4462             0             0      0.208703   7.07878e-16     0.0925942        102421        103076        238006   1.29697e-15
    0.0319044       287.956       288.339      0.125812     -0.279416      -9.63409             0       3.35132      -5.70498             0       17.0705       0.73618             0       85.7938             0             0      0.208364   7.13102e-16     0.0940686        102419        103075        238168   1.30654e-15
    0.0320721       287.954       288.339       0.12573     -0.609265       -9.7866             0       3.06514      -5.81298             0       17.3417     0.0159175             0        85.957             0             0      0.208031   7.19163e-16     0.0955176        102416        103075        238188   1.31764e-15
    0.0322397       287.953       288.339       0.12565     -0.931923      -9.92626             0       2.78889       -5.9156             0       17.7295     -0.608386             0       85.8758             0             0      0.207705   7.26336e-16     0.0969328        102414        103074        238020   1.33078e-15
    0.0324074       287.952       288.339      0.125571      -1.25458      -10.0659             0       2.51263      -6.01823             0       18.1172      -1.23269             0       85.7945             0             0       0.20738   7.33508e-16      0.098348        102412        103074        237851   1.34392e-15
    0.0325751       287.951       288.339      0.125492      -1.57724      -10.2056             0       2.23638      -6.12086             0        18.505      -1.85699             0       85.7133             0             0      0.207054   7.40681e-16     0.0997632        102410        103073        237683   1.35706e-15
    0.0327427       287.949       288.339      0.125413       -1.8999      -10.3453             0       1.96013      -6.22348             0       18.8927       -2.4813             0        85.632             0             0      0.206729   7.47853e-16      0.101178        102408        103073        237515   1.37021e-15
    0.0329104       287.948       288.339      0.125334      -2.22256      -10.4849             0       1.68387      -6.32611             0       19.2805       -3.1056             0       85.5508             0             0      0.206403   7.55026e-16      0.102594        102406        103072        237347   1.38335e-15
    0.0330781       287.948       288.338      0.125272       -2.5353      -10.6099             0        1.4196      -6.42343             0       19.6533       -3.5944             0       85.3101             0             0      0.206091   7.62166e-16      0.103951        102404        103072        237099   1.39643e-15
    0.0332457       287.951       288.338       0.12523      -2.83666      -10.7181             0       1.16908      -6.51468             0        20.009      -3.92772             0       84.8863             0             0      0.205794    7.6927e-16      0.105244        102401        103072        236761   1.40945e-15
    0.0334134       287.953       288.337      0.125188      -3.13802      -10.8263             0      0.918562      -6.60593             0       20.3647      -4.26104             0       84.4625             0             0      0.205497   7.76375e-16      0.106536        102399        103072        236423   1.42246e-15
    0.0335811       287.955       288.337      0.125147      -3.43938      -10.9345             0      0.668042      -6.69718             0       20.7205      -4.59437             0       84.0388             0             0        0.2052   7.83479e-16      0.107828        102397        103072        236084   1.43548e-15
    0.0337487       287.957       288.337      0.125105      -3.74074      -11.0427             0      0.417522      -6.78843             0       21.0762      -4.92769             0        83.615             0             0      0.204902   7.90583e-16       0.10912        102395        103072        235746   1.44849e-15
    0.0339164       287.959       288.336      0.125063       -4.0421      -11.1509             0      0.167001      -6.87968             0       21.4319      -5.26101             0       83.1912             0             0      0.204605   7.97687e-16      0.110412        102393        103071        235408   1.46151e-15
    0.0340841       287.962       288.336      0.125044      -4.32684      -11.2452             0    -0.0703926      -6.96334             0       21.7128      -5.43188             0        82.636             0             0      0.204317   8.04878e-16      0.111664        102391        103071        235044   1.47469e-15
    0.0342518       287.965       288.335      0.125048      -4.59506      -11.3257             0     -0.294739      -7.03947             0       21.9194      -5.44128             0       81.9499             0             0      0.204039   8.12154e-16      0.112876        102389        103072        234656   1.48802e-15
    0.0344194       287.969       288.334      0.125051      -4.86328      -11.4062             0     -0.519084       -7.1156             0        22.126      -5.45067             0       81.2639             0             0       0.20376   8.19431e-16      0.114087        102388        103072        234268   1.50135e-15
    0.0345871       287.972       288.334      0.125055       -5.1315      -11.4867             0      -0.74343      -7.19173             0       22.3326      -5.46006             0       80.5779             0             0      0.203481   8.26707e-16      0.115299        102386        103072        233880   1.51468e-15
    0.0347548       287.976       288.333      0.125058      -5.39972      -11.5672             0     -0.967776      -7.26786             0       22.5392      -5.46945             0       79.8919             0             0      0.203203   8.33984e-16      0.116511        102384        103073        233492   1.52801e-15
    0.0349224        287.98       288.333      0.125062      -5.66794      -11.6477             0      -1.19212      -7.34399             0       22.7458      -5.47885             0       79.2058             0             0      0.202924   8.41261e-16      0.117723        102382        103073        233103   1.54135e-15
    0.0350901       287.983       288.332      0.125128      -5.91335      -11.7127             0      -1.40475       -7.4099             0       22.8743      -5.34711             0       78.4012             0             0      0.202679   8.48783e-16      0.118786        102380        103073        232731   1.55513e-15
    0.0352578       287.988       288.332      0.125247      -6.13912      -11.7643             0      -1.60728      -7.46701             0       22.9354      -5.09385             0       77.4943             0             0      0.202464   8.56516e-16      0.119722        102378        103074        232371    1.5693e-15