#           y             T         TMean   TPrime2Mean           U_x           U_y           U_z       UMean_x       UMean_y       UMean_z UPrime2Mea... UPrime2Mea... UPrime2Mea... UPrime2Mea... UPrime2Mea... UPrime2Mea...            O2           H2O          C3H8             p         pMean   pPrime2Mean           CO2
         0.03       287.923       288.573       0.30884       6.45177      -14.2348             0       3.39987       1.45234             0       18.8049      0.312297             0       51.4156             0             0      0.198248   1.15938e-15      0.138051        102405        103165        267581   2.12419e-15
    0.0301702       287.922       288.571      0.305942       6.26735      -14.1901             0       3.37429       1.48941             0       18.9005      0.264567             0       51.3392             0             0      0.198204   1.16106e-15      0.138242        102405        103165        267026   2.12728e-15
    0.0303403       287.921       288.569      0.303045       6.08293      -14.1455             0       3.34871       1.52647             0       18.9961      0.216838             0       51.2629             0             0      0.198161   1.16274e-15      0.138432        102406        103166        266472   2.13036e-15
    0.0305105        287.92       288.568      0.300148       5.89851      -14.1009             0       3.32314       1.56353             0       19.0917      0.169108             0       51.1865             0             0      0.198117   1.16442e-15      0.138623        102407        103166        265917   2.13344e-15
    0.0306807       287.919       288.566       0.29725       5.71409      -14.0563             0       3.29756       1.60059             0       19.1872      0.121379             0       51.1102             0             0      0.198073   1.16611e-15      0.138813        102408        103166        265362   2.13652e-15
    0.0308509       287.918       288.564      0.294353       5.52967      -14.0116             0       3.27198       1.63766             0       19.2828     0.0736489             0       51.0338             0             0      0.198029   1.16779e-15      0.139003        102408        103167        264807    2.1396e-15
     0.031021       287.918       288.562       0.29159       5.34431       -13.964             0       3.24877       1.67509             0       19.4014      0.029962             0       50.9444             0             0      0.197983   1.16943e-15      0.139203        102409        103167        264242   2.14262e-15
    0.0311912       287.918        288.56      0.289777       5.15234      -13.8948             0        3.2423        1.7151             0       19.6828     0.0149589             0       50.7618             0             0      0.197923    1.1708e-15      0.139464        102410        103167        263607   2.14513e-15
    0.0313614       287.919       288.557      0.287963       4.96037      -13.8257             0       3.23584       1.75512             0       19.9643  -4.41416e-05             0       50.5792             0             0      0.197863   1.17217e-15      0.139725        102411        103168        262972   2.14764e-15
    0.0315315       287.919       288.555       0.28615        4.7684      -13.7566             0       3.22937       1.79513             0       20.2457    -0.0150472             0       50.3967             0             0      0.197803   1.17354e-15      0.139986        102412        103168        262337   2.15015e-15
    0.0317017        287.92       288.552      0.284337       4.57643      -13.6874             0       3.22291       1.83514             0       20.5272    -0.0300502             0       50.2141             0             0      0.197743   1.17491e-15      0.140247        102413        103169        261702   2.15266e-15
    0.0318719        287.92        288.55      0.282523       4.38446      -13.6183             0       3.21644       1.87516             0       20.8086    -0.0450533             0       50.0316             0             0      0.197683   1.17628e-15      0.140508        102413        103169        261067   2.15517e-15
     0.032042       287.921       288.548       0.28103       4.19211      -13.5444             0       3.21359       1.91524             0       21.1416    -0.0450034             0        49.827             0             0      0.197621   1.17754e-15       0.14078        102414        103170        260423   2.15748e-15
    0.0322122       287.922       288.545      0.280509       3.99857      -13.4562             0       3.22173       1.95552             0       21.6314   0.000922202             0       49.5553             0             0      0.197551   1.17848e-15      0.141083        102415        103171        259752    2.1592e-15
    0.0323824       287.923       288.543      0.279989       3.80503      -13.3679             0       3.22988       1.99579             0       22.1211     0.0468478             0       49.2836             0             0      0.197481   1.17942e-15      0.141386        102416        103171        259081   2.16092e-15
    0.0325526       287.924        288.54      0.279469        3.6115      -13.2796             0       3.23803       2.03607             0       22.6109     0.0927734             0       49.0119             0             0      0.197411   1.18036e-15       0.14169        102417        103172        258410   2.16264e-15
    0.0327227       287.925       288.538      0.278949       3.41796      -13.1913             0       3.24617       2.07634             0       23.1007      0.138699             0       48.7403             0             0      0.197342    1.1813e-15      0.141993        102418        103172        257739   2.16436e-15
    0.0328929       287.926       288.535      0.278428       3.22443       -13.103             0       3.25432       2.11662             0       23.5905      0.184625             0       48.4686             0             0      0.197272   1.18224e-15      0.142296        102419        103173        257068   2.16608e-15
    0.0330631       287.927       288.533      0.278294        3.0326      -13.0095             0       3.26527       2.15626             0       24.1882      0.254499             0       48.1714             0             0      0.197203   1.18307e-15      0.142596        102419        103174        256394   2.16761e-15
    0.0332332       287.928        288.53      0.278813       2.84369       -12.907             0       3.28097       2.19484             0       24.9689       0.36505             0       47.8309             0             0      0.197136   1.18374e-15      0.142887        102420        103174        255714   2.16883e-15
    0.0334034       287.929       288.528      0.279333       2.65478      -12.8045             0       3.29668       2.23341             0       25.7497      0.475601             0       47.4904             0             0      0.197069    1.1844e-15      0.143179        102421        103175        255034   2.17004e-15
    0.0335736        287.93       288.525      0.279853       2.46587       -12.702             0       3.31238       2.27199             0       26.5304      0.586152             0       47.1499             0             0      0.197002   1.18506e-15      0.143471        102422        103176        254354   2.17125e-15
    0.0337437       287.931       288.523      0.280373       2.27696      -12.5995             0       3.32809       2.31056             0       27.3112      0.696703             0       46.8094             0             0      0.196934   1.18572e-15      0.143763        102423        103177        253674   2.17247e-15
    0.0339139       287.932        288.52      0.280892       2.08804       -12.497             0       3.34379       2.34913             0        28.092      0.807254             0       46.4689             0             0      0.196867   1.18639e-15      0.144055        102424        103177        252994   2.17368e-15
    0.0340841       287.933       288.518      0.281735       1.90386      -12.3892             0       3.36181       2.38579             0       29.0149      0.945899             0        46.097             0             0        0.1968   1.18711e-15      0.144346        102424        103178        252316     2.175e-15
    0.0342543       287.934       288.516      0.282908       1.72452       -12.276             0        3.3822       2.42047             0       30.0834       1.11331             0       45.6928             0             0      0.196734   1.18788e-15      0.144636        102425        103179        251640   2.17642e-15
    0.0344244       287.935       288.514      0.284081       1.54517      -12.1627             0       3.40259       2.45516             0       31.1519       1.28072             0       45.2886             0             0      0.196667   1.18866e-15      0.144927        102426        103180        250964   2.17785e-15
    0.0345946       287.935       288.512      0.285254       1.36583      -12.0495             0       3.42298       2.48985             0       32.2204       1.44812             0       44.8844             0             0        0.1966   1.18944e-15      0.145217        102427        103181        250288   2.17927e-15
    0.0347648       287.936       288.509      0.286427       1.18649      -11.9363             0       3.44337       2.52453             0       33.2889       1.61553             0       44.4802             0             0      0.196533   1.19021e-15      0.145507        102428        103182        249612   2.18069e-15
    0.0349349       287.937       288.507      0.287599       1.00714       -11.823             0       3.46376       2.55922             0       34.3574       1.78294             0        44.076             0             0      0.196467   1.19099e-15      0.145797        102428        103183        248936   2.18212e-15
    0.0351051       287.938       288.506      0.288672      0.836472      -11.7049             0       3.48742       2.59056             0        35.517       1.96018             0        43.634             0             0      0.196389   1.19208e-15      0.146137        102429        103184        248268   2.18412e-15
    0.0352753       287.938       288.504      0.289683      0.671171      -11.5838             0       3.51312       2.61984             0        36.733       2.14351             0       43.1687             0             0      0.196303   1.19337e-15      0.146507        102430        103185        247605   2.18648e-15
    0.0354454       287.938       288.503      0.290694      0.505869      -11.4627             0       3.53882       2.64912             0       37.9491       2.32684             0       42.7034             0             0      0.196218   1.19466e-15      0.146877        102431        103186        246942   2.18883e-15
    0.0356156       287.939       288.502      0.291705      0.340567      -11.3415             0       3.56451        2.6784             0       39.1651       2.51016             0        42.238             0             0      0.196133   1.19594e-15      0.147248        102431        103187        246279   2.19119e-15
    0.0357858       287.939         288.5      0.292717      0.175266      -11.2204             0       3.59021       2.70768             0       40.3811       2.69349             0       41.7727             0             0      0.196048   1.19723e-15      0.147618        102432        103188        245616   2.19355e-15
     0.035956        287.94       288.499      0.293728    0.00996427      -11.0993             0        3.6159       2.73696             0       41.5971       2.87682             0       41.3073             0             0      0.195963   1.19852e-15      0.147988        102433        103189        244952   2.19591e-15
    0.0361261        287.94       288.498      0.293826     -0.142649      -10.9749             0       3.64528       2.76144             0        42.811       3.02756             0       40.8103             0             0      0.195866   1.20074e-15      0.148409        102433        103190        244321   2.19999e-15
    0.0362963        287.94       288.498      0.293606     -0.290832      -10.8493             0       3.67594       2.78424             0       44.0241       3.16693             0       40.3021             0             0      0.195765    1.2033e-15      0.148847        102434        103191        243701   2.20466e-15
    0.0364665       287.939       288.498      0.293386     -0.439015      -10.7238             0       3.70659       2.80705             0       45.2372        3.3063             0        39.794             0             0      0.195664   1.20585e-15      0.149285        102435        103193        243081   2.20934e-15
    0.0366366       287.939       288.497      0.293166     -0.587197      -10.5982             0       3.73725       2.82985             0       46.4503       3.44567             0       39.2859             0             0      0.195564    1.2084e-15      0.149723        102435        103194        242462   2.21401e-15
    0.0368068       287.939       288.497      0.292946      -0.73538      -10.4727             0       3.76791       2.85265             0       47.6634       3.58504             0       38.7777             0             0      0.195463   1.21095e-15      0.150162        102436        103195        241842   2.21869e-15
     0.036977       287.939       288.497      0.292726     -0.883563      -10.3472             0       3.79857       2.87546             0       48.8765       3.72441             0       38.2696             0             0      0.195362    1.2135e-15        0.1506        102437        103196        241222   2.22336e-15
    0.0371471       287.938       288.497      0.290879      -1.01611      -10.2205             0       3.83333       2.89053             0       49.9699        3.8262             0       37.7361             0             0      0.195258   1.21722e-15      0.151052        102437        103198        240655   2.23017e-15
    0.0373173       287.938       288.497      0.288776       -1.1462      -10.0937             0       3.86872        2.9044             0       51.0447       3.92212             0       37.1987             0             0      0.195153   1.22111e-15      0.151507        102438        103199        240096    2.2373e-15
    0.0374875       287.937       288.497      0.286674       -1.2763      -9.96689             0       3.90412       2.91827             0       52.1195       4.01804             0       36.6613             0             0      0.195049     1.225e-15      0.151962        102439        103200        239537   2.24443e-15
    0.0376577       287.936       288.497      0.284572       -1.4064      -9.84007             0       3.93951       2.93213             0       53.1943       4.11396             0       36.1239             0             0      0.194944    1.2289e-15      0.152417        102439        103202        238979   2.25157e-15
    0.0378278       287.935       288.498      0.282469      -1.53649      -9.71325             0       3.97491         2.946             0        54.269       4.20988             0       35.5865             0             0      0.194839   1.23279e-15      0.152872        102440        103203        238420    2.2587e-15
     0.037998       287.934       288.498      0.280367      -1.66659      -9.58643             0        4.0103       2.95987             0       55.3438        4.3058             0       35.0491             0             0      0.194735   1.23668e-15      0.153327        102441        103204        237861   2.26583e-15
    0.0381682       287.933       288.498      0.276444      -1.77904      -9.46077             0       4.05102       2.96218             0       56.1656       4.42765             0       34.4819             0             0       0.19461   1.24167e-15      0.153868        102441        103206        237383   2.27496e-15
    0.0383383       287.932       288.499      0.272499      -1.89128      -9.33513             0       4.09181       2.96434             0       56.9844       4.54982             0       33.9143             0             0      0.194486   1.24666e-15      0.154409        102442        103207        236906   2.28412e-15
    0.0385085       287.931       288.499      0.268554      -2.00352      -9.20948             0       4.13259       2.96651             0       57.8032       4.67198             0       33.3468             0             0      0.194361   1.25166e-15       0.15495        102442        103208        236428   2.29327e-15
    0.0386787        287.93       288.499      0.264609      -2.11576      -9.08384             0       4.17337       2.96868             0        58.622       4.79414             0       32.7793             0             0      0.194237   1.25666e-15      0.155491        102443        103210        235951   2.30243e-15
    0.0388488        287.93       288.499      0.260664        -2.228       -8.9582             0       4.21416       2.97085             0       59.4408        4.9163             0       32.2117             0             0      0.194112   1.26165e-15      0.156033        102444        103211        235474   2.31159e-15
     0.039019       287.929       288.499      0.256611       -2.3383      -8.83268             0       4.25531       2.97165             0       60.2283       5.04684             0       31.6401             0             0      0.193982   1.26688e-15      0.156601        102444        103213        235007   2.32116e-15
    0.0391892       287.929       288.499      0.251699      -2.43323      -8.70819             0        4.2994       2.96149             0       60.7674       5.24401             0       31.0356             0             0      0.193802   1.27393e-15      0.157381        102445        103214        234620   2.33408e-15
    0.0393594        287.93       288.499      0.246786      -2.52815      -8.58369             0       4.34349       2.95133             0       61.3065       5.44118             0       30.4311             0             0      0.193623   1.28098e-15      0.158161        102445        103215        234234     2.347e-15
    0.0395295       287.931       288.499      0.241874      -2.62307       -8.4592             0       4.38758       2.94117             0       61.8457       5.63835             0       29.8267             0             0      0.193444   1.28803e-15      0.158941        102446        103217        233848   2.35992e-15
    0.0396997       287.931       288.499      0.236962      -2.71799       -8.3347             0       4.43167       2.93102             0       62.3848       5.83551             0       29.2222             0             0      0.193264   1.29508e-15       0.15972        102447        103218        233461   2.37283e-15
    0.0398699       287.932       288.498       0.23205      -2.81291       -8.2102             0       4.47576       2.92086             0       62.9239       6.03268             0       28.6177             0             0      0.193085   1.30213e-15        0.1605        102447        103220        233075   2.38575e-15
      0.04004       287.933       288.498      0.227261      -2.90336      -8.08544             0       4.51986       2.90848             0       63.4093       6.23992             0       28.0066             0             0      0.192882   1.31007e-15      0.161382        102448        103221        232711   2.40029e-15
    0.0402102       287.936       288.497       0.22287      -2.97931       -7.9598             0         4.564       2.88889             0       63.7202       6.47987             0       27.3741             0             0      0.192603   1.32087e-15      0.162595        102448        103222        232419   2.42008e-15
    0.0403804       287.939       288.497       0.21848      -3.05525      -7.83416             0       4.60813        2.8693             0       64.0311       6.71982             0       26.7415             0             0      0.192324   1.33168e-15      0.163808        102449        103224        232127   2.43988e-15
    0.0405506       287.943       288.496       0.21409      -3.13119      -7.70853             0       4.65226       2.84971             0        64.342       6.95977             0       26.1089             0             0      0.192045   1.34248e-15      0.165021        102450        103225        231836   2.45968e-15
    0.0407207       287.946       288.495        0.2097      -3.20713      -7.58289             0        4.6964       2.83012             0       64.6529       7.19972             0       25.4763             0             0      0.191766   1.35329e-15      0.166233        102450        103227        231544   2.47947e-15
    0.0408909       287.949       288.495       0.20531      -3.28307      -7.45725             0       4.74053       2.81053             0       64.9638       7.43968             0       24.8437             0             0      0.191487   1.36409e-15      0.167446        102451        103228        231253   2.49927e-15
    0.0410611       287.953       288.494      0.201307      -3.35084      -7.32965             0       4.78369       2.78899             0       65.2224       7.66437             0       24.2106             0             0      0.191166   1.37666e-15      0.168844        102451        103230        230994    2.5223e-15
    0.0412312       287.958       288.493      0.197997      -3.40401      -7.19853             0       4.82511       2.76395             0       65.3876        7.8618             0       23.5768             0             0      0.190768   1.39238e-15      0.170573        102452        103231        230795    2.5511e-15
    0.0414014       287.963       288.492      0.194687      -3.45718      -7.06741             0       4.86653       2.73891             0       65.5528       8.05923             0        22.943             0             0      0.190371    1.4081e-15      0.172301        102452        103233        230596   2.57991e-15
    0.0415716       287.968       288.491      0.191378      -3.51035      -6.93629             0       4.90794       2.71387             0        65.718       8.25666             0       22.3091             0             0      0.189973   1.42383e-15       0.17403        102453        103234        230396   2.60872e-15
    0.0417417       287.972        288.49      0.188068      -3.56351      -6.80517             0       4.94936       2.68884             0       65.8833       8.45409             0       21.6753             0             0      0.189576   1.43955e-15      0.175759        102454        103236        230197   2.63753e-15
    0.0419119       287.977       288.489      0.184758      -3.61668      -6.67405             0       4.99078        2.6638             0       66.0485       8.65152             0       21.0414             0             0      0.189178   1.45527e-15      0.177487        102454        103237        229998   2.66633e-15
    0.0420821       287.983       288.488      0.182113      -3.65596      -6.53905             0       5.02808       2.63719             0       66.1838       8.79323             0       20.4189             0             0      0.188713   1.47322e-15       0.17951        102455        103238        229836   2.69922e-15
    0.0422523       287.988       288.486      0.180182      -3.68034      -6.39989             0       5.06096        2.6089             0        66.287       8.87514             0       19.8086             0             0      0.188175   1.49356e-15      0.181847        102455        103240        229715   2.73648e-15
    0.0424224       287.994       288.484      0.178251      -3.70471      -6.26073             0       5.09384        2.5806             0       66.3902       8.95705             0       19.1982             0             0      0.187637    1.5139e-15      0.184185        102456        103241        229594   2.77374e-15
    0.0425926           288       288.483      0.176321      -3.72909      -6.12157             0       5.12672       2.55231             0       66.4934       9.03896             0       18.5878             0             0        0.1871   1.53423e-15      0.186523        102456        103243        229473     2.811e-15
    0.0427628       288.005       288.481       0.17439      -3.75347      -5.98241             0        5.1596       2.52401             0       66.5966       9.12086             0       17.9775             0             0      0.186562   1.55457e-15       0.18886        102457        103244        229353   2.84826e-15
    0.0429329       288.011       288.479      0.172459      -3.77784      -5.84325             0       5.19249       2.49572             0       66.6998       9.20277             0       17.3671             0             0      0.186024   1.57491e-15      0.191198        102457        103246        229232   2.88552e-15
    0.0431031       288.017       288.477      0.171539      -3.78239      -5.70042             0       5.21615       2.46518             0       66.7306       9.20677             0       16.7674             0             0      0.185404   1.59693e-15      0.193896        102458        103247        229157   2.92587e-15
    0.0432733       288.023       288.474      0.171277      -3.77403      -5.55519             0       5.23382       2.43318             0       66.7142       9.16009             0       16.1748             0             0       0.18473   1.62005e-15      0.196828        102458        103248        229112   2.96823e-15
    0.0434434       288.028       288.472      0.171014      -3.76567      -5.40997             0       5.25148       2.40119             0       66.6979       9.11341             0       15.5821             0             0      0.184055   1.64316e-15       0.19976        102459        103250        229068   3.01058e-15
    0.0436136       288.034       288.469      0.170752      -3.75732      -5.26474             0       5.26915       2.36919             0       66.6816       9.06672             0       14.9894             0             0      0.183381   1.66628e-15      0.202692        102459        103251        229023   3.05294e-15
    0.0437838        288.04       288.466      0.170489      -3.74896      -5.11952             0       5.28682        2.3372             0       66.6652       9.02004             0       14.3967             0             0      0.182706    1.6894e-15      0.205624        102460        103252        228979    3.0953e-15
     0.043954       288.046       288.464      0.170227       -3.7406       -4.9743             0       5.30449        2.3052             0       66.6489       8.97336             0        13.804             0             0      0.182032   1.71252e-15      0.208556        102460        103254        228934   3.13766e-15
    0.0441241        288.05        288.46      0.170855      -3.70808      -4.83067             0       5.31046       2.26717             0       66.4194       8.85353             0       13.2235             0             0      0.181366   1.73359e-15      0.211451        102460        103255        228949   3.17627e-15
    0.0442943       288.055       288.456      0.171815       -3.6666      -4.68763             0       5.31209        2.2269             0       66.1108       8.70657             0       12.6475             0             0      0.180704   1.75391e-15      0.214332        102461        103256        228985   3.21348e-15
    0.0444645       288.059       288.452      0.172774      -3.62511      -4.54459             0       5.31373       2.18662             0       65.8022        8.5596             0       12.0715             0             0      0.180041   1.77422e-15      0.217213        102461        103258        229022    3.2507e-15
    0.0446346       288.063       288.448      0.173734      -3.58363      -4.40155             0       5.31536       2.14635             0       65.4936       8.41264             0       11.4955             0             0      0.179378   1.79453e-15      0.220094        102462        103259        229059   3.28792e-15
    0.0448048       288.067       288.445      0.174693      -3.54214      -4.25852             0         5.317       2.10608             0       65.1851       8.26567             0       10.9195             0             0      0.178716   1.81485e-15      0.222975        102462        103260        229095   3.32514e-15
     0.044975       288.071       288.441      0.175652      -3.50066      -4.11548             0       5.31863       2.06581             0       64.8765       8.11871             0       10.3435             0             0      0.178053   1.83516e-15      0.225856        102462        103262        229132   3.36236e-15
    0.0451451       288.074       288.436      0.177031      -3.43228      -3.97921             0       5.30754       2.01419             0       64.2603       7.89891             0       9.80145             0             0      0.177571   1.84793e-15      0.227954        102463        103263        229223   3.38575e-15
    0.0453153       288.077       288.431      0.178482      -3.35927      -3.84411             0       5.29426       1.96062             0       63.5911       7.66655             0       9.26524             0             0      0.177119    1.8594e-15      0.229916        102463        103264        229322   3.40677e-15
    0.0454855       288.079       288.426      0.179933      -3.28626        -3.709             0       5.28098       1.90704             0       62.9219        7.4342             0       8.72903             0             0      0.176668   1.87087e-15      0.231879        102463        103265        229422   3.42778e-15