#           y             T         TMean   TPrime2Mean           U_x           U_y           U_z       UMean_x       UMean_y       UMean_z UPrime2Mea... UPrime2Mea... UPrime2Mea... UPrime2Mea... UPrime2Mea... UPrime2Mea...            O2           H2O          C3H8             p         pMean   pPrime2Mean           CO2
         0.04       288.018       288.391      0.113296      -7.95593      -11.0477             0      -5.29709      -7.42707             0       21.1136       7.32919             0         38.54             0             0      0.203861   1.13657e-15      0.113647        102353        103117        224287    2.0824e-15
     0.039975       288.019       288.391      0.113439      -7.97467      -11.0579             0      -5.28977      -7.43401             0       21.1503       7.22463             0       38.7089             0             0      0.203812   1.13544e-15      0.113863        102353        103117        224286   2.08035e-15
    0.0399499       288.019       288.391      0.113583      -7.99341      -11.0682             0      -5.28246      -7.44095             0        21.187       7.12007             0       38.8778             0             0      0.203762   1.13432e-15      0.114079        102353        103117        224285   2.07829e-15
    0.0399249       288.019        288.39      0.113727      -8.01215      -11.0784             0      -5.27514      -7.44789             0       21.2237       7.01551             0       39.0467             0             0      0.203712    1.1332e-15      0.114295        102353        103117        224284   2.07624e-15
    0.0398999       288.019        288.39       0.11387      -8.03089      -11.0887             0      -5.26783      -7.45483             0       21.2604       6.91095             0       39.2156             0             0      0.203663   1.13208e-15      0.114511        102353        103117        224284   2.07418e-15
    0.0398749        288.02        288.39      0.114014      -8.04963       -11.099             0      -5.26051      -7.46177             0       21.2971       6.80639             0       39.3844             0             0      0.203613   1.13096e-15      0.114727        102354        103116        224283   2.07213e-15
    0.0398498        288.02       288.389      0.114158      -8.06837      -11.1092             0       -5.2532      -7.46871             0       21.3338       6.70183             0       39.5533             0             0      0.203563   1.12984e-15      0.114943        102354        103116        224282   2.07007e-15
    0.0398248        288.02       288.389      0.114302      -8.08711      -11.1195             0      -5.24588      -7.47565             0       21.3705       6.59727             0       39.7222             0             0      0.203514   1.12872e-15      0.115159        102354        103116        224281   2.06802e-15
    0.0397998        288.02       288.389      0.114445      -8.10585      -11.1297             0      -5.23857      -7.48259             0       21.4072       6.49271             0       39.8911             0             0      0.203464   1.12759e-15      0.115375        102354        103116        224280   2.06596e-15
    0.0397748       288.021       288.388      0.114589      -8.12459        -11.14             0      -5.23125      -7.48953             0       21.4439       6.38815             0         40.06             0             0      0.203414   1.12647e-15       0.11559        102354        103115        224279   2.06391e-15
    0.0397497       288.021       288.388      0.114733      -8.14333      -11.1502             0      -5.22393      -7.49647             0       21.4806       6.28359             0       40.2289             0             0      0.203364   1.12535e-15      0.115806        102354        103115        224278   2.06185e-15
    0.0397247       288.021       288.388      0.114876      -8.16207      -11.1605             0      -5.21662       -7.5034             0       21.5172       6.17903             0       40.3977             0             0      0.203315   1.12423e-15      0.116022        102355        103115        224278    2.0598e-15
    0.0396997       288.021       288.387       0.11502      -8.18081      -11.1708             0       -5.2093      -7.51034             0       21.5539       6.07447             0       40.5666             0             0      0.203265   1.12311e-15      0.116238        102355        103115        224277   2.05774e-15
    0.0396747       288.022       288.387      0.115164      -8.19955       -11.181             0      -5.20199      -7.51728             0       21.5906       5.96992             0       40.7355             0             0      0.203215   1.12199e-15      0.116454        102355        103115        224276   2.05569e-15
    0.0396496       288.022       288.387      0.115308      -8.21828      -11.1913             0      -5.19467      -7.52422             0       21.6273       5.86536             0       40.9044             0             0      0.203166   1.12086e-15       0.11667        102355        103114        224275   2.05363e-15
    0.0396246       288.022       288.386      0.115451      -8.23702      -11.2015             0      -5.18736      -7.53116             0        21.664        5.7608             0       41.0733             0             0      0.203116   1.11974e-15      0.116886        102355        103114        224274   2.05158e-15
    0.0395996       288.022       288.386      0.115595      -8.25576      -11.2118             0      -5.18004       -7.5381             0       21.7007       5.65624             0       41.2421             0             0      0.203066   1.11862e-15      0.117102        102355        103114        224273   2.04952e-15
    0.0395746       288.023       288.386      0.115739       -8.2745      -11.2221             0      -5.17273      -7.54504             0       21.7374       5.55168             0        41.411             0             0      0.203017    1.1175e-15      0.117318        102356        103114        224272   2.04747e-15
    0.0395495       288.023       288.385      0.115882      -8.29324      -11.2323             0      -5.16541      -7.55198             0       21.7741       5.44712             0       41.5799             0             0      0.202967   1.11638e-15      0.117534        102356        103113        224272   2.04541e-15
    0.0395245       288.023       288.385      0.116026      -8.31198      -11.2426             0       -5.1581      -7.55892             0       21.8108       5.34256             0       41.7488             0             0      0.202917   1.11526e-15       0.11775        102356        103113        224271   2.04336e-15
    0.0394995       288.023       288.385       0.11617      -8.33072      -11.2528             0      -5.15078      -7.56586             0       21.8475         5.238             0       41.9177             0             0      0.202868   1.11413e-15      0.117966        102356        103113        224270    2.0413e-15
    0.0394745       288.024       288.384      0.116313      -8.34946      -11.2631             0      -5.14346       -7.5728             0       21.8842       5.13344             0       42.0866             0             0      0.202818   1.11301e-15      0.118182        102356        103113        224269   2.03925e-15
    0.0394494       288.024       288.384      0.116457       -8.3682      -11.2733             0      -5.13615      -7.57974             0       21.9209       5.02888             0       42.2554             0             0      0.202768   1.11189e-15      0.118398        102356        103113        224268   2.03719e-15
    0.0394244       288.024       288.384      0.116601      -8.38694      -11.2836             0      -5.12883      -7.58668             0       21.9576       4.92432             0       42.4243             0             0      0.202719   1.11077e-15      0.118614        102356        103112        224267   2.03514e-15
    0.0393994       288.024       288.383      0.116745      -8.40568      -11.2939             0      -5.12152      -7.59362             0       21.9943       4.81976             0       42.5932             0             0      0.202669   1.10965e-15       0.11883        102357        103112        224266   2.03308e-15
    0.0393744       288.025       288.383      0.116888      -8.42442      -11.3041             0       -5.1142      -7.60056             0       22.0309        4.7152             0       42.7621             0             0      0.202619   1.10853e-15      0.119046        102357        103112        224266   2.03103e-15
    0.0393493       288.025       288.383      0.117032      -8.44316      -11.3144             0      -5.10689       -7.6075             0       22.0676       4.61064             0        42.931             0             0       0.20257   1.10741e-15      0.119262        102357        103112        224265   2.02897e-15
    0.0393243       288.025       288.382      0.117176       -8.4619      -11.3246             0      -5.09957      -7.61444             0       22.1043       4.50608             0       43.0998             0             0       0.20252   1.10628e-15      0.119478        102357        103111        224264   2.02692e-15
    0.0392993       288.025       288.382      0.117319      -8.48064      -11.3349             0      -5.09226      -7.62138             0        22.141       4.40152             0       43.2687             0             0       0.20247   1.10516e-15      0.119694        102357        103111        224263   2.02486e-15
    0.0392743       288.026       288.382      0.117463      -8.49938      -11.3451             0      -5.08494      -7.62832             0       22.1777       4.29697             0       43.4376             0             0      0.202421   1.10404e-15       0.11991        102357        103111        224262   2.02281e-15
    0.0392492       288.026       288.381      0.117607      -8.51811      -11.3554             0      -5.07763      -7.63526             0       22.2144       4.19241             0       43.6065             0             0      0.202371   1.10292e-15      0.120126        102358        103111        224261   2.02075e-15
    0.0392242       288.026       288.381      0.117751      -8.53685      -11.3657             0      -5.07031       -7.6422             0       22.2511       4.08785             0       43.7754             0             0      0.202321    1.1018e-15      0.120342        102358        103111        224261    2.0187e-15
    0.0391992       288.026       288.381      0.117894      -8.55559      -11.3759             0        -5.063      -7.64914             0       22.2878       3.98329             0       43.9443             0             0      0.202272   1.10068e-15      0.120558        102358        103110        224260   2.01664e-15
    0.0391742       288.027        288.38      0.118038      -8.57433      -11.3862             0      -5.05568      -7.65607             0       22.3245       3.87873             0       44.1131             0             0      0.202222   1.09955e-15      0.120774        102358        103110        224259   2.01459e-15
    0.0391491       288.027        288.38      0.118182      -8.59307      -11.3964             0      -5.04836      -7.66301             0       22.3612       3.77417             0        44.282             0             0      0.202172   1.09843e-15       0.12099        102358        103110        224258   2.01253e-15
    0.0391241       288.027        288.38      0.118325      -8.61181      -11.4067             0      -5.04105      -7.66995             0       22.3979       3.66961             0       44.4509             0             0      0.202123   1.09731e-15      0.121206        102358        103110        224257   2.01048e-15
    0.0390991       288.027        288.38      0.118469      -8.63055      -11.4169             0      -5.03373      -7.67689             0       22.4346       3.56505             0       44.6198             0             0      0.202073   1.09619e-15      0.121422        102358        103109        224256   2.00842e-15
    0.0390741       288.028       288.379      0.118613      -8.64929      -11.4272             0      -5.02642      -7.68383             0       22.4713       3.46049             0       44.7887             0             0      0.202023   1.09507e-15      0.121638        102359        103109        224255   2.00637e-15
     0.039049       288.028       288.379      0.118757      -8.66803      -11.4375             0       -5.0191      -7.69077             0       22.5079       3.35593             0       44.9575             0             0      0.201974   1.09395e-15      0.121854        102359        103109        224255   2.00431e-15
     0.039024       288.028       288.379        0.1189      -8.68677      -11.4477             0      -5.01179      -7.69771             0       22.5446       3.25137             0       45.1264             0             0      0.201924   1.09282e-15       0.12207        102359        103109        224254   2.00226e-15
     0.038999       288.028       288.378      0.119042      -8.70482      -11.4577             0      -5.00424      -7.70452             0       22.5808        3.1474             0       45.2958             0             0      0.201875   1.09168e-15      0.122282        102359        103109        224253   2.00017e-15
     0.038974       288.028       288.378      0.119148      -8.70633      -11.4608             0      -4.99107      -7.70818             0       22.6049       3.05759             0       45.4776             0             0      0.201847   1.09009e-15      0.122403        102359        103108        224267   1.99725e-15
    0.0389489       288.028       288.377      0.119254      -8.70785      -11.4639             0      -4.97789      -7.71184             0       22.6289       2.96778             0       45.6594             0             0       0.20182   1.08849e-15      0.122524        102360        103108        224281   1.99432e-15
    0.0389239       288.028       288.377      0.119359      -8.70937       -11.467             0      -4.96472       -7.7155             0        22.653       2.87797             0       45.8412             0             0      0.201792    1.0869e-15      0.122644        102360        103108        224295    1.9914e-15
    0.0388989       288.028       288.377      0.119465      -8.71088      -11.4701             0      -4.95155      -7.71916             0        22.677       2.78816             0        46.023             0             0      0.201764    1.0853e-15      0.122765        102360        103108        224308   1.98848e-15
    0.0388739       288.028       288.376       0.11957       -8.7124      -11.4733             0      -4.93838      -7.72282             0        22.701       2.69836             0       46.2048             0             0      0.201736   1.08371e-15      0.122886        102360        103107        224322   1.98556e-15
    0.0388488       288.028       288.376      0.119676      -8.71391      -11.4764             0      -4.92521      -7.72648             0       22.7251       2.60855             0       46.3867             0             0      0.201708   1.08212e-15      0.123007        102360        103107        224336   1.98264e-15
    0.0388238       288.028       288.376      0.119781      -8.71543      -11.4795             0      -4.91204      -7.73014             0       22.7491       2.51874             0       46.5685             0             0      0.201681   1.08052e-15      0.123128        102361        103107        224349   1.97971e-15
    0.0387988       288.028       288.375      0.119887      -8.71694      -11.4826             0      -4.89887       -7.7338             0       22.7732       2.42893             0       46.7503             0             0      0.201653   1.07893e-15      0.123249        102361        103107        224363   1.97679e-15
    0.0387738       288.028       288.375      0.119992      -8.71846      -11.4857             0      -4.88569      -7.73746             0       22.7972       2.33912             0       46.9321             0             0      0.201625   1.07733e-15       0.12337        102361        103107        224377   1.97387e-15
    0.0387487       288.029       288.375      0.120098      -8.71997      -11.4889             0      -4.87252      -7.74112             0       22.8212       2.24931             0       47.1139             0             0      0.201597   1.07574e-15      0.123491        102361        103106        224391   1.97095e-15
    0.0387237       288.029       288.374      0.120204      -8.72149       -11.492             0      -4.85935      -7.74478             0       22.8453        2.1595             0       47.2957             0             0      0.201569   1.07414e-15      0.123612        102361        103106        224404   1.96803e-15
    0.0386987       288.029       288.374      0.120309      -8.72301      -11.4951             0      -4.84618      -7.74844             0       22.8693       2.06969             0       47.4775             0             0      0.201542   1.07255e-15      0.123732        102362        103106        224418    1.9651e-15
    0.0386737       288.029       288.374      0.120415      -8.72452      -11.4982             0      -4.83301       -7.7521             0       22.8934       1.97988             0       47.6593             0             0      0.201514   1.07095e-15      0.123853        102362        103106        224432   1.96218e-15
    0.0386486       288.029       288.373       0.12052      -8.72604      -11.5013             0      -4.81984      -7.75576             0       22.9174       1.89007             0       47.8411             0             0      0.201486   1.06936e-15      0.123974        102362        103106        224446   1.95926e-15
    0.0386236       288.029       288.373      0.120626      -8.72755      -11.5044             0      -4.80667      -7.75942             0       22.9415       1.80026             0       48.0229             0             0      0.201458   1.06776e-15      0.124095        102362        103105        224459   1.95634e-15
    0.0385986       288.029       288.372      0.120731      -8.72907      -11.5076             0      -4.79349      -7.76308             0       22.9655       1.71045             0       48.2047             0             0       0.20143   1.06617e-15      0.124216        102363        103105        224473   1.95342e-15
    0.0385736       288.029       288.372      0.120837      -8.73058      -11.5107             0      -4.78032      -7.76675             0       22.9895       1.62064             0       48.3865             0             0      0.201403   1.06457e-15      0.124337        102363        103105        224487   1.95049e-15
    0.0385485       288.029       288.372      0.120942       -8.7321      -11.5138             0      -4.76715      -7.77041             0       23.0136       1.53083             0       48.5683             0             0      0.201375   1.06298e-15      0.124458        102363        103105        224500   1.94757e-15
    0.0385235       288.029       288.371      0.121048      -8.73361      -11.5169             0      -4.75398      -7.77407             0       23.0376       1.44102             0       48.7501             0             0      0.201347   1.06138e-15      0.124579        102363        103105        224514   1.94465e-15
    0.0384985       288.029       288.371      0.121154      -8.73513        -11.52             0      -4.74081      -7.77773             0       23.0617       1.35121             0       48.9319             0             0      0.201319   1.05979e-15      0.124699        102363        103104        224528   1.94173e-15
    0.0384735       288.029       288.371      0.121259      -8.73665      -11.5231             0      -4.72764      -7.78139             0       23.0857       1.26141             0       49.1137             0             0      0.201291   1.05819e-15       0.12482        102364        103104        224542   1.93881e-15
    0.0384484       288.029        288.37      0.121365      -8.73816      -11.5263             0      -4.71447      -7.78505             0       23.1098        1.1716             0       49.2955             0             0      0.201264    1.0566e-15      0.124941        102364        103104        224555   1.93588e-15
    0.0384234       288.029        288.37       0.12147      -8.73968      -11.5294             0      -4.70129      -7.78871             0       23.1338       1.08179             0       49.4773             0             0      0.201236     1.055e-15      0.125062        102364        103104        224569   1.93296e-15
    0.0383984       288.029        288.37      0.121576      -8.74119      -11.5325             0      -4.68812      -7.79237             0       23.1578      0.991977             0       49.6591             0             0      0.201208   1.05341e-15      0.125183        102364        103103        224583   1.93004e-15
    0.0383734       288.029       288.369      0.121681      -8.74271      -11.5356             0      -4.67495      -7.79603             0       23.1819      0.902168             0       49.8409             0             0       0.20118   1.05181e-15      0.125304        102364        103103        224597   1.92712e-15
    0.0383483       288.029       288.369      0.121787      -8.74422      -11.5387             0      -4.66178      -7.79969             0       23.2059      0.812358             0       50.0228             0             0      0.201152   1.05022e-15      0.125425        102365        103103        224610    1.9242e-15
    0.0383233       288.029       288.368      0.121892      -8.74574      -11.5418             0      -4.64861      -7.80335             0         23.23      0.722549             0       50.2046             0             0      0.201125   1.04862e-15      0.125546        102365        103103        224624   1.92127e-15
    0.0382983       288.029       288.368      0.121998      -8.74725       -11.545             0      -4.63544      -7.80701             0        23.254       0.63274             0       50.3864             0             0      0.201097   1.04703e-15      0.125666        102365        103103        224638   1.91835e-15
    0.0382733       288.029       288.368      0.122103      -8.74877      -11.5481             0      -4.62227      -7.81067             0        23.278       0.54293             0       50.5682             0             0      0.201069   1.04543e-15      0.125787        102365        103102        224651   1.91543e-15
    0.0382482       288.029       288.367      0.122209      -8.75029      -11.5512             0      -4.60909      -7.81433             0       23.3021      0.453121             0         50.75             0             0      0.201041   1.04384e-15      0.125908        102366        103102        224665   1.91251e-15
    0.0382232       288.029       288.367      0.122315       -8.7518      -11.5543             0      -4.59592      -7.81799             0       23.3261      0.363311             0       50.9318             0             0      0.201013   1.04224e-15      0.126029        102366        103102        224679   1.90959e-15
    0.0381982       288.029       288.367       0.12242      -8.75332      -11.5574             0      -4.58275      -7.82165             0       23.3502      0.273502             0       51.1136             0             0      0.200985   1.04065e-15       0.12615        102366        103102        224693   1.90666e-15
    0.0381732       288.029       288.366      0.122526      -8.75483      -11.5605             0      -4.56958      -7.82531             0       23.3742      0.183693             0       51.2954             0             0      0.200958   1.03905e-15      0.126271        102366        103102        224706   1.90374e-15
    0.0381481       288.029       288.366      0.122631      -8.75635      -11.5637             0      -4.55641      -7.82897             0       23.3983     0.0938833             0       51.4772             0             0       0.20093   1.03746e-15      0.126392        102366        103101        224720   1.90082e-15
    0.0381231       288.029       288.366      0.122737      -8.75786      -11.5668             0      -4.54324      -7.83263             0       23.4223    0.00407391             0        51.659             0             0      0.200902   1.03587e-15      0.126513        102367        103101        224734    1.8979e-15
    0.0380981       288.029       288.365      0.122842      -8.75938      -11.5699             0      -4.53007      -7.83629             0       23.4463    -0.0857355             0       51.8408             0             0      0.200874   1.03427e-15      0.126633        102367        103101        224747   1.89498e-15
    0.0380731       288.029       288.365      0.122948      -8.76089       -11.573             0      -4.51689      -7.83995             0       23.4704     -0.175545             0       52.0226             0             0      0.200846   1.03268e-15      0.126754        102367        103101        224761   1.89205e-15
     0.038048       288.029       288.365      0.123053      -8.76241      -11.5761             0      -4.50372      -7.84361             0       23.4944     -0.265354             0       52.2044             0             0      0.200819   1.03108e-15      0.126875        102367        103100        224775   1.88913e-15
     0.038023       288.029       288.364      0.123159      -8.76393      -11.5792             0      -4.49055      -7.84727             0       23.5185     -0.355164             0       52.3862             0             0      0.200791   1.02949e-15      0.126996        102367        103100        224789   1.88621e-15
     0.037998       288.029       288.364       0.12326       -8.7643       -11.582             0      -4.47689      -7.85061             0       23.5404     -0.443282             0       52.5684             0             0      0.200765   1.02792e-15      0.127108        102368        103100        224803   1.88334e-15
     0.037973       288.029       288.364      0.123311      -8.75159      -11.5807             0      -4.45762      -7.85024             0       23.5384     -0.511953             0       52.7549             0             0      0.200763   1.02665e-15      0.127118        102368        103100        224829   1.88101e-15
    0.0379479       288.029       288.363      0.123362      -8.73888      -11.5795             0      -4.43835      -7.84987             0       23.5364     -0.580625             0       52.9413             0             0       0.20076   1.02537e-15      0.127128        102368        103100        224855   1.87868e-15
    0.0379229       288.029       288.363      0.123412      -8.72616      -11.5782             0      -4.41907       -7.8495             0       23.5344     -0.649296             0       53.1278             0             0      0.200758    1.0241e-15      0.127138        102368        103100        224881   1.87635e-15
    0.0378979       288.028       288.363      0.123463      -8.71345       -11.577             0       -4.3998      -7.84913             0       23.5325     -0.717968             0       53.3143             0             0      0.200756   1.02283e-15      0.127148        102369        103099        224907   1.87402e-15
    0.0378729       288.028       288.362      0.123514      -8.70074      -11.5757             0      -4.38053      -7.84877             0       23.5305     -0.786639             0       53.5007             0             0      0.200754   1.02156e-15      0.127159        102369        103099        224933   1.87169e-15
    0.0378478       288.028       288.362      0.123565      -8.68803      -11.5744             0      -4.36126       -7.8484             0       23.5285     -0.855311             0       53.6872             0             0      0.200751   1.02029e-15      0.127169        102369        103099        224959   1.86936e-15
    0.0378228       288.028       288.362      0.123616      -8.67531      -11.5732             0      -4.34199      -7.84803             0       23.5265     -0.923982             0       53.8737             0             0      0.200749   1.01902e-15      0.127179        102369        103099        224985   1.86703e-15
    0.0377978       288.027       288.362      0.123666       -8.6626      -11.5719             0      -4.32271      -7.84766             0       23.5245     -0.992654             0       54.0602             0             0      0.200747   1.01775e-15      0.127189        102370        103099        225011    1.8647e-15
    0.0377728       288.027       288.361      0.123717      -8.64989      -11.5706             0      -4.30344      -7.84729             0       23.5225      -1.06133             0       54.2466             0             0      0.200744   1.01648e-15      0.127199        102370        103099        225037   1.86238e-15
    0.0377477       288.027       288.361      0.123768      -8.63718      -11.5694             0      -4.28417      -7.84692             0       23.5205         -1.13             0       54.4331             0             0      0.200742   1.01521e-15      0.127209        102370        103098        225063   1.86005e-15
    0.0377227       288.027       288.361      0.123819      -8.62446      -11.5681             0       -4.2649      -7.84655             0       23.5185      -1.19867             0       54.6196             0             0       0.20074   1.01394e-15      0.127219        102370        103098        225088   1.85772e-15