#           y             T         TMean   TPrime2Mean           U_x           U_y           U_z       UMean_x       UMean_y       UMean_z UPrime2Mea... UPrime2Mea... UPrime2Mea... UPrime2Mea... UPrime2Mea... UPrime2Mea...            O2           H2O          C3H8             p         pMean   pPrime2Mean           CO2
  1.11022e-19       288.242        288.59     0.0952332       19.0298   -3.8978e-17             0       12.4873   2.92184e-18             0       37.1297   7.25434e-18             0   5.89378e-18             0             0      0.181527   2.34873e-15      0.210752        102384        103216        260149   4.30331e-15
  0.000500501       288.236       288.598     0.0923304       18.6102     -0.175717             0       12.4691      0.013172             0       36.7344     0.0327034             0     0.0265698             0             0      0.181993   2.34788e-15      0.208725        102384        103216        260150   4.30175e-15
     0.001001       288.231       288.606     0.0894261       18.1897     -0.351426             0       12.4508      0.026343             0       36.3375     0.0654612             0     0.0532166             0             0      0.182462   2.34696e-15      0.206686        102384        103216        260150   4.30007e-15
    0.0015015       288.184       288.618     0.0857581       17.2632     -0.523384             0       12.3967     0.0390484             0        35.106      0.125402             0      0.118278             0             0      0.184301   2.31395e-15      0.198691        102384        103216        260140   4.23959e-15
     0.002002       288.136        288.63     0.0821047       16.3372     -0.695317             0       12.3425     0.0517463             0       33.8732      0.185388             0       0.18352             0             0      0.186144   2.28079e-15      0.190679        102384        103216        260129   4.17884e-15
    0.0025025       288.056       288.635     0.0820544       15.5404     -0.861071             0       12.2746     0.0626032             0       32.2855      0.256682             0      0.293726             0             0      0.188892   2.20981e-15      0.178732        102385        103216        260106   4.04879e-15
     0.003003       287.976       288.639     0.0820187        14.746      -1.02679             0       12.2067     0.0734461             0       30.6995      0.327862             0      0.404192             0             0      0.191652   2.13842e-15      0.166729        102385        103215        260083   3.91799e-15
    0.0035035       287.863       288.638     0.0843954       14.3616      -1.18723             0       12.1523     0.0819799             0       29.3834      0.380003             0      0.557937             0             0      0.196559   1.99885e-15      0.145397        102385        103215        260059   3.66227e-15
     0.004004        287.75       288.638     0.0867898       13.9792      -1.34761             0        12.098     0.0905024             0       28.0694      0.431965             0       0.71198             0             0      0.201477   1.85886e-15      0.124013        102385        103215        260035   3.40577e-15
    0.0045045       287.666       288.636     0.0913915       13.8543      -1.50127             0       12.0578     0.0976312             0        27.023      0.461809             0       0.90305             0             0      0.207894    1.6658e-15     0.0961113        102385        103215        259987   3.05206e-15
   0.00500501       287.584       288.634     0.0959594         13.73      -1.65491             0       12.0177      0.104753             0       25.9781        0.4915             0       1.09441             0             0      0.214287   1.47312e-15     0.0683187        102386        103214        259938   2.69903e-15
   0.00550551       287.679       288.633     0.0971805       13.6596      -1.80787             0       11.9839      0.111157             0       25.0858      0.506061             0       1.31436             0             0      0.218206   1.31757e-15     0.0512766        102386        103214        259869   2.41404e-15
   0.00600601       287.774       288.633     0.0983166       13.5892       -1.9608             0       11.9502      0.117551             0       24.1956       0.52038             0        1.5346             0             0      0.222096   1.16249e-15     0.0343634        102386        103214        259800   2.12991e-15
   0.00650651       287.964       288.636     0.0924624        13.521      -2.11136             0       11.9224      0.123137             0       23.4844       0.51475             0       1.77774             0             0      0.223547   1.04638e-15     0.0280568        102386        103214        259707   1.91716e-15
   0.00700701       288.153        288.64     0.0866057        13.453      -2.26198             0       11.8948      0.128709             0       22.7767      0.508713             0       2.02122             0             0      0.224987   9.30573e-16     0.0217951        102386        103213        259613   1.70498e-15
   0.00750751       288.254       288.644      0.080573       13.4018      -2.41717             0       11.8766       0.13326             0        22.306      0.474011             0       2.28898             0             0      0.225701   8.36619e-16     0.0186905        102386        103213        259496   1.53284e-15
   0.00800801       288.353       288.648     0.0745922       13.3506      -2.57239             0       11.8585      0.137798             0       21.8387       0.43891             0       2.55717             0             0       0.22641   7.43179e-16     0.0156078        102386        103213        259378   1.36164e-15
   0.00850851        288.37       288.649     0.0718035       13.2913      -2.72996             0       11.8472      0.141545             0        21.573      0.379281             0       2.85228             0             0      0.226809   6.81383e-16     0.0138741        102385        103212        259242   1.24842e-15
   0.00900901       288.387       288.651     0.0690423       13.2315      -2.88746             0       11.8359      0.145285             0       21.3089      0.319456             0       3.14789             0             0      0.227205   6.19933e-16     0.0121534        102385        103212        259107   1.13583e-15
   0.00950951       288.386       288.652     0.0677763       13.1448      -3.04149             0       11.8237      0.148687             0       21.1282      0.248945             0       3.47106             0             0      0.227436   5.77367e-16     0.0111459        102385        103212        258962   1.05784e-15
      0.01001       288.385       288.653     0.0665279       13.0575      -3.19537             0       11.8113      0.152083             0       20.9473      0.178337             0       3.79488             0             0       0.22767   5.34575e-16     0.0101324        102385        103212        258818   9.79441e-16
    0.0105105       288.374       288.654     0.0661452        12.946      -3.34161             0       11.7926       0.15517             0       20.7521      0.103015             0       4.15024             0             0       0.22797   4.80668e-16    0.00882709        102385        103211        258675   8.80673e-16
     0.011011       288.364       288.655     0.0657725       12.8342      -3.48763             0       11.7737      0.158244             0       20.5553     0.0275517             0       4.50643             0             0       0.22827   4.26656e-16    0.00752182        102384        103211        258532   7.81714e-16
    0.0115115       288.344       288.655     0.0658439       12.7046      -3.62373             0        11.746      0.160731             0       20.2865    -0.0542479             0       4.89968             0             0       0.22857      3.68e-16    0.00621772        102384        103210        258392   6.74245e-16
     0.012012       288.324       288.656     0.0659149        12.575      -3.75976             0        11.718      0.163207             0       20.0144     -0.135946             0       5.29376             0             0      0.228867   3.09846e-16    0.00492472        102384        103210        258252   5.67695e-16
    0.0125125       288.302       288.657     0.0659671       12.4421      -3.89338             0       11.6779      0.165188             0       19.6116       -0.2135             0       5.72139             0             0      0.229061   2.72108e-16    0.00408311        102383        103210        258151   4.98553e-16
     0.013013       288.281       288.658     0.0660087       12.3096      -4.02745             0       11.6373      0.167201             0       19.2026     -0.289658             0       6.14906             0             0      0.229251    2.3499e-16    0.00325522        102383        103209        258049   4.30546e-16
    0.0135135       288.266        288.66     0.0656517       12.1942      -4.17831             0       11.5771      0.170453             0       18.5626     -0.313513             0       6.57826             0             0      0.229324   2.21081e-16     0.0029411        102383        103209        257972   4.05061e-16
     0.014014       288.251       288.662       0.06529       12.0793      -4.32991             0        11.516      0.173811             0        17.914     -0.334457             0       7.00592             0             0      0.229393   2.07564e-16    0.00264016        102382        103208        257894   3.80296e-16
    0.0145145       288.235       288.665     0.0647655        11.984        -4.507             0       11.4272      0.180883             0       16.9628     -0.254354             0       7.38032             0             0      0.229357    2.0768e-16    0.00279655        102382        103208        257834   3.80508e-16
     0.015015       288.219       288.668     0.0642394       11.8881       -4.6837             0       11.3375       0.18805             0       16.0046     -0.172033             0       7.75247             0             0      0.229316   2.08276e-16    0.00297512        102381        103207        257776   3.81601e-16
    0.0155155       288.197       288.671     0.0636606       11.7714      -4.84779             0         11.22      0.198329             0       14.8147    -0.0180198             0       8.05168             0             0       0.22911   2.24407e-16    0.00387065        102381        103207        257747   4.11156e-16
     0.016016       288.176       288.673     0.0630751       11.6525      -5.00968             0       11.1018      0.208572             0       13.6229      0.135386             0       8.34948             0             0      0.228892   2.41385e-16    0.00481899        102380        103206        257718   4.42262e-16
    0.0165165        288.16       288.676     0.0622871       11.4651       -5.1054             0       10.9645      0.217713             0       12.3701      0.270401             0         8.605             0             0      0.228306   2.83958e-16    0.00736486        102380        103206        257674   5.20264e-16
     0.017017       288.146       288.678     0.0615037       11.2757      -5.19861             0       10.8266      0.226721             0       11.1205      0.403114             0       8.85938             0             0      0.227701   3.27601e-16    0.00999544        102379        103206        257629   6.00226e-16
    0.0175175        288.15        288.68     0.0608529       11.0302      -5.22023             0       10.6771       0.23196             0       9.95786      0.470414             0       9.08137             0             0      0.226542   4.01644e-16     0.0150327        102379        103205        257553   7.35887e-16
     0.018018       288.154       288.682     0.0602131       10.7841      -5.24044             0       10.5273      0.237088             0       8.80234      0.535975             0       9.30081             0             0      0.225368   4.76352e-16     0.0201379        102378        103205        257475   8.72766e-16
    0.0185185       288.178       288.684     0.0598665       10.5243      -5.22286             0       10.3689      0.239242             0       7.83697      0.554967             0       9.45205             0             0      0.223775   5.68861e-16     0.0270632        102378        103205        257357   1.04226e-15
     0.019019       288.202       288.686     0.0595241       10.2648      -5.20441             0       10.2104      0.241299             0       6.88228      0.572912             0       9.59972             0             0      0.222159   6.62326e-16     0.0340893        102377        103205        257237    1.2135e-15
    0.0195195       288.253       288.689     0.0592902        10.014      -5.16406             0        10.049       0.24088             0       6.19827      0.564352             0       9.65667             0             0      0.219957   7.80007e-16     0.0436664        102377        103204        257079   1.42912e-15
      0.02002       288.305       288.691     0.0590398       9.76375      -5.12323             0       9.88765      0.240327             0       5.52665      0.554847             0       9.71028             0             0      0.217734   8.98695e-16     0.0533297        102376        103204        256920   1.64658e-15
    0.0205205       288.378       288.694     0.0583947       9.52689       -5.0708             0       9.73051      0.236543             0        5.1523      0.522676             0       9.68363             0             0      0.215035   1.04156e-15     0.0650638        102376        103204        256758   1.90834e-15
     0.021021        288.45       288.697     0.0577211       9.29086      -5.01853             0       9.57362      0.232651             0       4.78937      0.490101             0       9.65368             0             0      0.212363   1.18323e-15     0.0766836        102375        103204        256595   2.16789e-15
    0.0215215       288.509       288.702     0.0563965       9.07388      -4.96987             0       9.42255      0.226277             0       4.68666      0.448303             0       9.54872             0             0       0.21029   1.29739e-15     0.0856969        102375        103204        256449   2.37706e-15
     0.022022       288.566       288.706     0.0550586       8.85747      -4.92119             0       9.27163      0.219878             0       4.59324       0.40704             0       9.44008             0             0      0.208261   1.40925e-15     0.0945164        102374        103205        256302   2.58202e-15
    0.0225225         288.6        288.71     0.0534318        8.6536      -4.87202             0       9.12393      0.212934             0       4.70147       0.37738             0       9.25133             0             0      0.207201   1.47128e-15     0.0991244        102374        103205        256154   2.69566e-15
     0.023023       288.633       288.715     0.0518195       8.44989      -4.82245             0       8.97638      0.205998             0       4.81752      0.348574             0       9.05892             0             0      0.206168   1.53199e-15      0.103618        102374        103205        256006   2.80689e-15
    0.0235235       288.656       288.719     0.0505073       8.24953      -4.76425             0       8.83195      0.199225             0       5.09578      0.337461             0       8.79074             0             0      0.205682   1.56546e-15       0.10573        102373        103205        255845   2.86822e-15
     0.024024       288.678       288.723     0.0492252        8.0498      -4.70588             0       8.68786      0.192446             0       5.38121      0.326961             0       8.51932             0             0      0.205212    1.5982e-15      0.107772        102373        103206        255683    2.9282e-15
    0.0245245       288.694       288.728     0.0485408       7.86252      -4.64397             0       8.55067      0.185537             0       5.80868      0.328617             0       8.18368             0             0      0.205063   1.61637e-15      0.108422        102373        103206        255517    2.9615e-15
     0.025025       288.709       288.732     0.0478679       7.67616      -4.58234             0       8.41416      0.178619             0       6.24154      0.330713             0       7.84544             0             0      0.204939   1.63355e-15      0.108963        102373        103207        255349   2.99297e-15
    0.0255255       288.717       288.736     0.0474142       7.50713      -4.52622             0       8.29059      0.171519             0       6.77681      0.341156             0       7.45781             0             0      0.205292   1.63175e-15      0.107427        102373        103207        255148   2.98967e-15
     0.026026       288.725       288.741     0.0469403       7.33886      -4.47056             0       8.16801      0.164421             0       7.31369      0.351847             0        7.0687             0             0      0.205667   1.62912e-15      0.105795        102373        103208        254946   2.98485e-15
    0.0265265       288.729       288.747     0.0460975       7.18449      -4.42331             0       8.06361      0.157375             0        7.8799      0.367044             0       6.65242             0             0      0.206448   1.61147e-15      0.102402        102373        103209        254720   2.95251e-15
     0.027027       288.733       288.752     0.0452176       7.03053       -4.3763             0       7.96034      0.150339             0       8.44369      0.382352             0        6.2359             0             0      0.207232   1.59381e-15     0.0989911        102373        103209        254492   2.92016e-15
    0.0275275       288.737        288.76     0.0436859       6.88389       -4.3337             0       7.87695      0.143485             0       8.96518      0.399595             0       5.81526             0             0      0.208084   1.57606e-15     0.0952876        102373        103210        254247   2.88764e-15
     0.028028       288.741       288.768     0.0421727       6.73731      -4.29071             0       7.79476      0.136672             0       9.48034      0.416941             0       5.39542             0             0      0.208961   1.55678e-15     0.0914726        102373        103210        254002   2.85231e-15
    0.0285285       288.731       288.777     0.0409691       6.59166      -4.24128             0        7.7326      0.130548             0       9.88895      0.436025             0       4.98916             0             0      0.210271   1.51173e-15      0.085779        102374        103210        253760   2.76977e-15
     0.029029        288.72       288.785     0.0398462       6.44616      -4.19078             0       7.67167      0.124541             0       10.2871      0.454792             0       4.58461             0             0      0.211609   1.46463e-15      0.079959        102374        103211        253521   2.68347e-15
    0.0295295       288.697       288.792      0.040033       6.30338      -4.12284             0       7.63072      0.120433             0       10.5156       0.46841             0       4.20773             0             0       0.21342   1.38424e-15     0.0720878        102374        103211        253327   2.53619e-15
      0.03003       288.673       288.798     0.0402504       6.16171      -4.05372             0       7.59093      0.116474             0       10.7319      0.481107             0       3.83339             0             0      0.215219    1.3038e-15     0.0642663        102374        103212        253139    2.3888e-15
    0.0305305       288.654       288.801     0.0409458       6.03755      -3.96604             0       7.56911      0.114857             0       10.7553      0.479383             0       3.49893             0             0      0.216839   1.22241e-15     0.0572236        102375        103212        253021   2.23969e-15
     0.031031       288.634       288.803      0.041608       5.91541      -3.87752             0       7.54814      0.113332             0       10.7693      0.476726             0       3.16766             0             0       0.21845   1.14025e-15     0.0502194        102376        103213        252906   2.08915e-15
    0.0315315       288.608       288.802     0.0417677       5.82383      -3.77641             0       7.54008      0.113182             0       10.6396      0.459956             0       2.88466             0             0      0.219926   1.04633e-15     0.0437981        102376        103213        252849   1.91706e-15
     0.032032       288.581       288.802     0.0418874       5.73433      -3.67463             0       7.53239      0.113041             0        10.507      0.442744             0         2.605             0             0        0.2214    9.5167e-16     0.0373912        102377        103214        252797   1.74364e-15
    0.0325325       288.549       288.798      0.041422       5.67538      -3.56305             0       7.53031      0.113032             0       10.3309      0.419067             0       2.37416             0             0      0.222825   8.46309e-16     0.0311963        102377        103214        252826    1.5506e-15
     0.033033       288.517       288.795     0.0409301       5.61773       -3.4511             0       7.52819      0.112989             0       10.1577      0.395331             0       2.14627             0             0      0.224242   7.40983e-16      0.025034        102378        103214        252860   1.35762e-15
    0.0335335       288.485        288.79     0.0400629       5.57866      -3.33385             0       7.52552      0.112474             0       10.0267      0.370758             0       1.95989             0             0      0.225553   6.36151e-16     0.0193335        102378        103215        252966   1.16555e-15
     0.034034       288.453       288.785      0.039169       5.53984      -3.21659             0       7.52267      0.111918             0       9.90038      0.346253             0       1.77575             0             0      0.226837   5.32919e-16     0.0137543        102379        103215        253075   9.76407e-16
    0.0345345       288.431       288.778     0.0379084       5.50456      -3.09934             0       7.51735      0.110817             0       9.83848      0.322683             0       1.62219             0             0      0.227738   4.51629e-16     0.0098358        102379        103215        253230   8.27468e-16
     0.035035       288.409       288.771     0.0366313       5.46889      -2.98208             0       7.51197       0.10967             0       9.77931       0.29925             0       1.47029             0             0      0.228599     3.722e-16    0.00609168        102380        103215        253390   6.81939e-16
    0.0355355       288.403       288.763     0.0351351       5.42803      -2.86486             0       7.50584      0.107925             0       9.75626      0.277623             0       1.34042             0             0      0.228927     3.175e-16     0.0046642        102380        103216        253601    5.8172e-16
     0.036036       288.396       288.755     0.0336593       5.38681      -2.74771             0       7.49982      0.106138             0       9.73339      0.256161             0       1.21188             0             0      0.229243   2.63551e-16    0.00329215        102381        103216        253813   4.82874e-16
    0.0365365       288.395       288.745     0.0324468       5.34109      -2.63145             0       7.49529      0.103818             0       9.71289      0.236825             0       1.10044             0             0      0.229394   2.19271e-16    0.00263455        102381        103216        254047   4.01746e-16
     0.037037       288.393       288.736     0.0312914       5.29545      -2.51529             0       7.49093      0.101463             0        9.6915       0.21764             0      0.990166             0             0       0.22954   1.76319e-16    0.00199834        102382        103216        254283    3.2305e-16
    0.0375375       288.393       288.728     0.0308504       5.25092      -2.40035             0       7.48877     0.0986793             0       9.65896      0.200361             0      0.894419             0             0      0.229625   1.49987e-16    0.00162971        102382        103216        254533   2.74805e-16
     0.038038       288.392        288.72     0.0304636        5.2068      -2.28552             0       7.48673      0.095864             0       9.62577      0.183225             0      0.799754             0             0      0.229708   1.24348e-16    0.00127142        102383        103216        254784   2.27829e-16
    0.0385385       288.392       288.714     0.0307345       5.16769      -2.17201             0       7.48635     0.0926646             0       9.58462      0.167838             0      0.718251             0             0      0.229761   1.07134e-16    0.00103885        102383        103216        255053   1.96289e-16
     0.039039       288.391       288.709      0.031027       5.12892      -2.05862             0       7.48604     0.0894351             0       9.54343      0.152593             0      0.637733             0             0      0.229814   9.01349e-17   0.000808682        102383        103216        255323   1.65143e-16
    0.0395395        288.39       288.705     0.0315734        5.0943      -1.94665             0       7.48653      0.085849             0       9.50179      0.139024             0      0.568852             0             0       0.22986   7.56832e-17   0.000606848        102384        103216        255602   1.38665e-16
      0.04004        288.39       288.702     0.0321156        5.0599      -1.83484             0       7.48703     0.0822338             0       9.46053      0.125607             0      0.500853             0             0      0.229906   6.13961e-17   0.000409691        102384        103216        255883   1.12489e-16
    0.0405405       288.389         288.7     0.0326083       5.02807      -1.72478             0       7.48774      0.078283             0       9.42361      0.113943             0      0.442981             0             0      0.229939   4.90029e-17   0.000266322        102384        103217        256175   8.97825e-17
     0.041041       288.389       288.698     0.0330837       4.99642      -1.61491             0       7.48845     0.0743049             0       9.38716      0.102421             0      0.385894             0             0       0.22997   3.69616e-17   0.000131699        102384        103217        256468   6.77206e-17
    0.0415415       288.389       288.697     0.0333652       4.96685      -1.50715             0       7.48915     0.0700204             0       9.35614     0.0924886             0      0.337597             0             0      0.229978   2.88594e-17   9.49941e-05        102385        103217        256756   5.28758e-17
     0.042042       288.389       288.696     0.0336353       4.93757      -1.39963             0       7.48984     0.0657098             0        9.3256     0.0826921             0      0.290008             0             0      0.229986   2.10642e-17   5.99767e-05        102385        103217        257041   3.85936e-17
    0.0425425       288.389       288.696     0.0337802       4.91144       -1.2947             0       7.49044      0.061114             0       9.30039     0.0743741             0      0.250144             0             0       0.22999   1.66176e-17   4.33609e-05        102385        103217        257307   3.04465e-17
     0.043043        288.39       288.695     0.0339179       4.88552      -1.19003             0       7.49103     0.0564951             0       9.27553      0.066171             0      0.210918             0             0      0.229994   1.23455e-17   2.74338e-05        102385        103217        257572   2.26193e-17
    0.0435435        288.39       288.695     0.0339781        4.8617      -1.08811             0       7.49164     0.0516308             0       9.25431     0.0591879             0      0.178478             0             0      0.229996   9.92851e-18   1.88258e-05        102385        103217        257828   1.81909e-17
     0.044044        288.39       288.695     0.0340341       4.83753     -0.986543             0       7.49215     0.0467447             0       9.23356     0.0523155             0      0.146626             0             0      0.229998   7.57199e-18   1.06819e-05        102385        103217        258082   1.38733e-17
    0.0445445       288.391       288.695     0.0340455       4.80968     -0.888595             0       7.49163     0.0416317             0       9.21768      0.046591             0      0.120853             0             0      0.229998   5.84209e-18   7.34644e-06        102385        103217        258314   1.07038e-17
     0.045045       288.391       288.695     0.0340579       4.77893     -0.791144             0       7.49034     0.0365003             0       9.19851     0.0410177             0     0.0956232             0             0      0.229999    4.1863e-18   4.19185e-06        102385        103218        258541   7.67009e-18
    0.0455455       288.392       288.695     0.0340805       4.71882     -0.698713             0       7.48125     0.0311824             0       9.14591     0.0369739             0     0.0758724             0             0      0.229999   3.27982e-18   2.86602e-06        102385        103218        258731   6.00925e-18