#           y             T         TMean   TPrime2Mean           U_x           U_y           U_z       UMean_x       UMean_y       UMean_z UPrime2Mea... UPrime2Mea... UPrime2Mea... UPrime2Mea... UPrime2Mea... UPrime2Mea...            O2           H2O          C3H8             p         pMean   pPrime2Mean           CO2
  1.11022e-19       287.833       288.025     0.0914783       23.0877  -5.43483e-16             0       22.2886  -3.15033e-16             0       10.9511   1.39618e-16             0   1.11007e-16             0             0      0.229993   5.45603e-19   3.01824e-05        102511        103175        191594   9.99646e-19
  0.000500501       287.834       288.026     0.0915249       23.0886    -0.0260393             0         22.29     0.0136407             0       10.9741     -0.152658             0     0.0308701             0             0      0.229963   1.09584e-18   0.000159455        102511        103175        191523   2.00778e-18
     0.001001       287.834       288.026     0.0915726       23.0896    -0.0521245             0       22.2915     0.0272813             0       10.9971     -0.305325             0     0.0618667             0             0      0.229933   1.65087e-18   0.000291753        102511        103174        191452   3.02469e-18
    0.0015015        287.84        288.03     0.0922041       23.1065     -0.101178             0       22.2946     0.0408829             0       11.0558     -0.462787             0      0.155991             0             0      0.229555   4.59599e-18    0.00193314        102511        103174        191278   8.42071e-18
     0.002002       287.845       288.033     0.0928554       23.1234     -0.150404             0       22.2978     0.0544761             0        11.115     -0.620324             0       0.25054             0             0      0.229169   7.57018e-18    0.00361278        102511        103174        191104     1.387e-17
    0.0025025       287.884       288.047     0.0984467        23.149     -0.242574             0       22.3045     0.0659874             0       11.2741     -0.796906             0      0.450653             0             0      0.226592   1.77826e-17     0.0148192        102511        103174        190891   3.25809e-17
     0.003003       287.923       288.061      0.104121       23.1747     -0.335206             0       22.3114     0.0774987             0       11.4338     -0.973802             0      0.651929             0             0      0.223981   2.80561e-17     0.0261683        102511        103173        190679    5.1404e-17
    0.0035035       288.041       288.084      0.123588       23.2036       -0.5046             0       22.3341     0.0890309             0       11.7023      -1.20279             0       1.04575             0             0      0.215936   4.84661e-17     0.0611492        102511        103172        190487   8.87989e-17
     0.004004       288.159       288.108      0.143178       23.2327     -0.674719             0       22.3571      0.100534             0       11.9716      -1.43267             0       1.44139             0             0      0.207875   6.88621e-17     0.0961974        102510        103172        190296   1.26168e-16
    0.0045045       288.284       288.123      0.178045       23.2961     -0.934621             0       22.4116      0.108461             0       12.3499      -1.77319             0       2.06322             0             0      0.197895   8.75268e-17      0.139589        102508        103171        190185   1.60365e-16
   0.00500501       288.408       288.138      0.212923       23.3604      -1.19321             0       22.4667      0.116443             0       12.7282      -2.11381             0       2.68518             0             0      0.187958   1.06083e-16      0.182792        102506        103169        190075   1.94363e-16
   0.00550551        288.45       288.144      0.248882       23.5146      -1.32146             0        22.574       0.12992             0       13.1031      -2.46384             0       3.31861             0             0      0.182305   1.13854e-16      0.207371        102504        103168        189990   2.08602e-16
   0.00600601       288.491        288.15      0.284579         23.67      -1.44621             0       22.6801      0.143406             0       13.4759      -2.81358             0       3.95077             0             0      0.176688   1.21576e-16      0.231789        102501        103167        189905   2.22749e-16
   0.00650651       288.507       288.152      0.298745       23.9284      -1.28268             0       22.6864      0.157602             0       13.6682      -3.14016             0       4.47788             0             0      0.174131   1.25139e-16      0.242908        102499        103166        189748   2.29278e-16
   0.00700701       288.523       288.155       0.31233       24.1843      -1.11545             0       22.6882      0.171865             0       13.8553      -3.46385             0       5.00388             0             0      0.171579   1.28711e-16      0.254006        102496        103164        189591   2.35822e-16
   0.00750751       288.565       288.182      0.284993       24.2638     -0.687457             0       22.3673      0.190854             0       13.6765      -3.58477             0       5.45184             0             0      0.169348   1.32914e-16      0.263706        102491        103163        189397   2.43523e-16
   0.00800801       288.607       288.209      0.257433       24.3251     -0.253664             0       22.0378       0.21008             0       13.4883      -3.70046             0       5.89913             0             0      0.167111   1.37129e-16       0.27343        102486        103162        189200   2.51246e-16
   0.00850851       288.644       288.249      0.216137       23.2685      0.536985             0       21.1806      0.243827             0       12.7239      -3.49486             0       6.30489             0             0      0.164542   1.42095e-16      0.284599        102478        103161        188883   2.60345e-16
   0.00900901       288.678       288.288      0.175318       22.1909       1.33064             0       20.3148      0.277475             0        11.951      -3.28428             0       6.70471             0             0      0.161995   1.47029e-16      0.295674        102470        103160        188562   2.69384e-16
   0.00950951       288.609       288.285       0.16055       19.9619       2.28809             0       18.9839      0.305728             0       10.7145        -2.802             0       6.77973             0             0      0.160622   1.50144e-16      0.301645        102463        103159        188009   2.75091e-16
      0.01001       288.538       288.281       0.14638       17.7385       3.23444             0        17.653      0.333261             0       9.48891      -2.32203             0       6.84855             0             0      0.159281   1.53213e-16      0.307476        102457        103159        187455   2.80715e-16
    0.0105105       288.335       288.233      0.161553       15.7843       3.63634             0       16.3251      0.325474             0       8.79774      -1.95487             0       6.61347             0             0      0.159537    1.5406e-16      0.306362        102457        103159        186774   2.82267e-16
     0.011011       288.132       288.185      0.177176       13.8537       4.02683             0        15.008      0.316473             0       8.13824      -1.60377             0       6.38547             0             0      0.159772   1.54926e-16      0.305339        102457        103159        186095   2.83853e-16
    0.0115115       287.907       288.122      0.212819       12.9734       3.90996             0       14.1764      0.253446             0       8.88687      -1.96635             0       6.47182             0             0      0.159082   1.56611e-16      0.308339        102461        103159        185478   2.86941e-16
     0.012012       287.684       288.061      0.248528       12.1138       3.79246             0       13.3576      0.190532             0        9.6685       -2.3428             0       6.57075             0             0      0.158321   1.58362e-16      0.311648        102465        103159        184860   2.90148e-16
    0.0125125       287.557       288.026      0.286967       12.0947       3.64973             0       13.0607      0.132219             0       11.7918      -3.28328             0       7.18104             0             0      0.154665   1.62737e-16      0.327543        102469        103158        184219   2.98164e-16
     0.013013       287.434       287.992      0.324864       12.0916       3.50517             0       12.7721     0.0738491             0       13.9482      -4.22743             0       7.80302             0             0      0.150937   1.67096e-16      0.343753        102473        103157        183577   3.06151e-16
    0.0135135       287.474       287.998      0.342505       12.6866        3.2919             0        12.794     0.0133714             0       17.3438      -5.30874             0       8.86294             0             0      0.144506   1.70845e-16      0.371711        102474        103156        182862    3.1302e-16
     0.014014       287.517       288.006      0.359413       13.2937       3.07557             0       12.8232    -0.0466851             0       20.7501      -6.38652             0        9.9343             0             0       0.13813    1.7445e-16      0.399435        102475        103154        182146   3.19625e-16
    0.0145145       287.644       288.035      0.350924       14.3199        2.7529             0        13.108    -0.0921227             0       24.5253      -7.34213             0       11.4026             0             0      0.133623    1.7305e-16       0.41903        102474        103152        181407   3.17059e-16
     0.015015       287.769       288.064      0.342224       15.3546       2.42551             0       13.3993     -0.137235             0        28.283       -8.2885             0       12.8802             0             0      0.129493   1.71372e-16      0.436986        102472        103150        180671   3.13985e-16
    0.0155155       287.821       288.095      0.326701        16.661        1.9458             0       13.9017     -0.171836             0       31.4747       -8.9365             0       14.6599             0             0      0.137555    1.6072e-16      0.401937        102471        103147        180026   2.94468e-16
     0.016016       287.871       288.127      0.311077       17.9781       1.46309             0       14.4112     -0.205583             0       34.6609      -9.56468             0       16.4438             0             0      0.145952   1.49774e-16      0.365425        102470        103144        179393   2.74414e-16
    0.0165165       287.889       288.147      0.292407       19.6226      0.889941             0       15.1338     -0.213494             0        37.684      -9.59359             0       18.3521             0             0      0.164529   1.29949e-16      0.284658        102464        103141        179107   2.38091e-16
     0.017017       287.908       288.166      0.273734       21.2612      0.321548             0       15.8655     -0.219452             0       40.7144      -9.57588             0       20.2606             0             0      0.182915   1.10267e-16      0.204719        102459        103137        178843   2.02029e-16
    0.0175175       287.951       288.169      0.254958       22.7359     -0.111683             0       16.8594     -0.169954             0         43.95       -8.2337             0       22.1755             0             0      0.195896   9.46369e-17       0.14828        102449        103133        179181   1.73392e-16
     0.018018       287.992       288.171      0.236593       24.1833     -0.534674             0       17.8491     -0.118879             0       47.1666      -6.85667             0       24.0915             0             0      0.208601   7.94093e-17     0.0930391        102439        103129        179546   1.45493e-16
    0.0185185       287.968       288.154      0.229225       24.9012     -0.683457             0       18.7264    -0.0255507             0       49.8753      -4.54662             0       26.0395             0             0      0.213928   7.49559e-17       0.06988        102428        103125        180652   1.37333e-16
     0.019019       287.944       288.137      0.221997       25.6015     -0.827685             0       19.5881     0.0665312             0       52.5286      -2.24508             0        27.992             0             0      0.219161   7.09255e-17     0.0471244        102417        103120        181788   1.29949e-16
    0.0195195       287.885       288.119      0.218339       25.8548     -0.856573             0       20.0538      0.127073             0         53.78     -0.158893             0       30.0598             0             0      0.222045   7.76075e-17     0.0345862        102406        103115        183656   1.42191e-16
      0.02002       287.827       288.101      0.214471       26.0956     -0.885487             0       20.5083      0.186478             0       54.9449        1.9064             0        32.141             0             0      0.224846    8.5308e-17     0.0224076        102394        103110        185551     1.563e-16
    0.0205205       287.792       288.097      0.205566       26.0347     -0.915002             0       20.6941      0.218602             0       54.0327       3.47021             0        34.545             0             0      0.225662   1.17454e-16     0.0188593        102383        103105        188083   2.15197e-16
     0.021021       287.758       288.094      0.196497       25.9525     -0.939237             0       20.8708      0.249868             0       53.0415       5.01496             0        36.959             0             0      0.226382   1.52841e-16     0.0157298        102372        103100        190633   2.80033e-16
    0.0215215       287.731       288.099      0.183714       25.3852     -0.843031             0        20.838      0.261569             0       50.2476       6.12503             0       39.6012             0             0      0.224905   2.62172e-16     0.0221536        102361        103094        193580   4.80348e-16
     0.022022       287.705       288.105       0.17096       24.8106     -0.749925             0       20.7943      0.271923             0       47.4179       7.21981             0       42.2482             0             0      0.223367   3.73055e-16     0.0288373        102350        103089        196544   6.83507e-16
    0.0225225       287.712       288.118      0.158853        24.077     -0.724202             0       20.5148      0.252999             0       43.8113       7.98243             0       44.9989             0             0      0.220531   5.17664e-16     0.0411695        102340        103083        199864   9.48457e-16
     0.023023       287.721       288.131      0.146959       23.3698     -0.718498             0       20.2222      0.232149             0       40.2325       8.72842             0       47.7547             0             0      0.217745   6.58719e-16     0.0532814        102330        103077        203204    1.2069e-15
    0.0235235       287.749       288.152      0.139516       23.2089      -1.12797             0       19.6607      0.171351             0       37.2316       9.12982             0       50.6167             0             0       0.21601   7.26074e-16     0.0608241        102319        103072        206959    1.3303e-15
     0.024024       287.777       288.174      0.132291       23.0519      -1.54307             0       19.0948       0.10874             0       34.3159        9.5273             0       53.4838             0             0      0.214364   7.88982e-16     0.0679818        102309        103066        210735   1.44556e-15
    0.0245245       287.792       288.198      0.129405       22.9729      -2.06985             0       18.4419     0.0101701             0       33.0892       9.84729             0       56.4514             0             0      0.214474   7.63672e-16     0.0675053        102296        103061        214943   1.39919e-15
     0.025025       287.805       288.223      0.126621       22.8625      -2.59187             0       17.7947    -0.0889434             0       31.9028       10.1802             0       59.4228             0             0      0.214654   7.36109e-16     0.0667235        102283        103055        219171   1.34869e-15
    0.0255255       287.798       288.243      0.125791       22.1563      -3.02373             0       17.2562     -0.198392             0       31.4824       10.7593             0       62.4648             0             0      0.216168   6.65725e-16     0.0601391        102269        103049        223759   1.21973e-15
     0.026026       287.791       288.263       0.12491       21.4357      -3.45912             0       16.7195     -0.308298             0       31.0379       11.3396             0       65.5021             0             0      0.217684    5.9661e-16     0.0535482        102254        103044        228358    1.0931e-15
    0.0265265       287.782       288.275      0.123103        20.451      -3.95885             0        16.217     -0.426541             0       30.1533       11.9417             0       68.4551             0             0      0.219228   5.50639e-16     0.0468365        102240        103037        233166   1.00887e-15
     0.027027       287.775       288.287      0.121224       19.4583      -4.46063             0       15.7086     -0.545665             0       29.2469       12.5319             0       71.3963             0             0       0.22072   5.06666e-16     0.0403493        102225        103030        237974   9.28306e-16
    0.0275275       287.785       288.296      0.118104       18.3265      -4.99835             0       15.0978     -0.680247             0       27.9598       12.9134             0       74.1307             0             0      0.221307   4.97719e-16     0.0377952        102210        103023        242783   9.11913e-16
     0.028028       287.794       288.305      0.115012       17.1863       -5.5357             0       14.4807     -0.815733             0       26.6717       13.2849             0       76.8423             0             0       0.22187   4.89204e-16     0.0353493        102195        103016        247572   8.96314e-16
    0.0285285       287.805       288.312      0.112407       15.9041      -6.06682             0       13.7587      -0.96645             0       25.3687       13.4891             0       79.1681             0             0      0.222013   4.87987e-16     0.0347267        102181        103008        252012   8.94083e-16
     0.029029       287.816       288.318      0.109905       14.6169      -6.59828             0       13.0308      -1.11778             0       24.0938       13.6878             0       81.4583             0             0      0.222151   4.86829e-16     0.0341255        102167        103001        256397   8.91962e-16
    0.0295295       287.821        288.32      0.109049       13.2498      -7.13507             0       12.2069      -1.27902             0        23.278       13.7985             0       83.1704             0             0      0.222209   4.86633e-16     0.0338728        102154        102994        259895   8.91603e-16
      0.03003       287.826       288.321      0.108234       11.8772      -7.66764             0       11.3784      -1.44087             0       22.5214       13.9121             0       84.8356             0             0      0.222265   4.86397e-16     0.0336311        102141        102987        263310    8.9117e-16
    0.0305305       287.828        288.32       0.10807       10.4204      -8.13407             0       10.4786      -1.61235             0        22.693        14.069             0       85.7653             0             0      0.222281   4.85529e-16     0.0335625        102129        102980        265406    8.8958e-16
     0.031031       287.829       288.319      0.107868       8.96001      -8.59339             0       9.57574      -1.78362             0        22.935       14.2356             0       86.6434             0             0      0.222295   4.84604e-16      0.033499        102118        102974        267410   8.87886e-16
    0.0315315       287.827       288.318      0.107084       7.44411      -8.94505             0       8.62539      -1.95185             0       24.2407       14.5491             0       86.7404             0             0      0.222292   4.82827e-16     0.0335142        102108        102969        268011   8.84629e-16
     0.032032       287.825       288.316        0.1063       5.92937      -9.28736             0       7.67377      -2.11953             0       25.5914       14.8683             0       86.7917             0             0      0.222288   4.80941e-16     0.0335317        102098        102964        268538   8.81173e-16
    0.0325325        287.82       288.315      0.105517       4.43144      -9.49287             0       6.70372      -2.27918             0       27.5997       15.2696             0       86.1764             0             0      0.222276   4.77467e-16     0.0335832        102091        102960        267960   8.74809e-16
     0.033033       287.816       288.313      0.104783       2.93923      -9.68925             0       5.73429      -2.43799             0       29.5949       15.6615             0       85.5257             0             0      0.222264   4.73898e-16     0.0336349        102084        102957        267345    8.6827e-16
    0.0335335        287.81       288.311       0.10475        1.5281      -9.75649             0       4.77382      -2.58487             0       31.4055       15.9199             0       84.3757             0             0      0.222251   4.68984e-16     0.0336903        102080        102954        266213   8.59266e-16
     0.034034       287.804       288.309      0.104762      0.125808      -9.81661             0       3.81453      -2.73089             0        33.145       16.1483             0       83.1967             0             0      0.222238   4.63949e-16     0.0337496        102076        102952        265081   8.50041e-16
    0.0345345       287.797       288.309      0.105392      -1.15528      -9.77942             0       2.87151      -2.86539             0       33.9086       15.9653             0       81.6197             0             0      0.222211   4.57258e-16     0.0338635        102074        102951        263931   8.37782e-16
     0.035035       287.789        288.31      0.106049      -2.42757      -9.73906             0       1.92913      -2.99938             0       34.5798       15.7382             0       80.0148             0             0      0.222182   4.50416e-16     0.0339895        102073        102950        262794   8.25246e-16
    0.0355355       287.777       288.311      0.107077      -3.58287      -9.65666             0      0.995374      -3.12678             0        34.024       14.9259             0       78.0395             0             0      0.222116    4.4157e-16     0.0342771        102075        102950        261822   8.09039e-16
     0.036036       287.766       288.313      0.108147      -4.73161      -9.57489             0     0.0615665      -3.25397             0        33.417       14.0735             0       76.0343             0             0      0.222045   4.32708e-16     0.0345887        102077        102950        260851   7.92802e-16
    0.0365365       287.752       288.315      0.109764      -5.79576      -9.50116             0     -0.872885      -3.37837             0       32.1491       12.7054             0        73.643             0             0      0.221902    4.2363e-16     0.0352084        102082        102951        259909   7.76169e-16
     0.037037       287.739       288.317      0.111457       -6.8561       -9.4302             0      -1.80735      -3.50184             0       30.9032       11.3263             0       71.2229             0             0      0.221754   4.14686e-16     0.0358537        102086        102953        258949   7.59783e-16
    0.0375375       287.726       288.319      0.114097      -7.86865      -9.39397             0      -2.74201      -3.61368             0       29.9333       9.80947             0       68.4417             0             0      0.221531   4.07432e-16     0.0368201        102093        102957        257755   7.46492e-16
     0.038038       287.713        288.32      0.116809      -8.87813      -9.36014             0      -3.67531      -3.72344             0        29.043       8.32355             0       65.6362             0             0      0.221304   4.00437e-16     0.0378103        102101        102960        256526   7.33675e-16
    0.0385385       287.704        288.32      0.120402      -9.85028      -9.35542             0      -4.59201      -3.80798             0       29.1192       7.21296             0       62.5357             0             0      0.221009   3.96584e-16     0.0390899        102110        102965        254889   7.26615e-16
     0.039039       287.694        288.32      0.124056      -10.8168      -9.35051             0      -5.50418       -3.8894             0       29.2979       6.16373             0       59.4208             0             0      0.220683   3.93208e-16     0.0405079        102120        102971        253216    7.2043e-16
    0.0395395       287.685       288.318      0.128441      -11.7167      -9.34333             0      -6.36284       -3.9339             0        30.688       5.83978             0       56.1346             0             0      0.219981   3.95476e-16      0.043561        102132        102978        251131   7.24586e-16
      0.04004       287.677       288.316      0.132714      -12.6051      -9.33158             0      -7.21257      -3.97456             0       32.1719       5.58084             0       52.8418             0             0      0.219203   3.99084e-16     0.0469416        102144        102985        249020   7.31197e-16
    0.0405405        287.68       288.314      0.135702      -13.3626      -9.26731             0      -7.95976      -3.97096             0       34.7345       6.06957             0       49.4713             0             0       0.21756   4.18101e-16     0.0540883        102159        102994        246606    7.6604e-16
     0.041041       287.687       288.312      0.138349      -14.1002      -9.19339             0       -8.6939      -3.96296             0       37.3509       6.60218             0       46.0978             0             0      0.215792   4.40153e-16     0.0617728        102173        103003        244186   8.06443e-16
    0.0415415       287.733       288.312       0.13719      -14.6159      -9.01156             0      -9.28205      -3.90566             0       40.5699       7.62608             0       42.6903             0             0       0.21264   4.96179e-16     0.0754789        102189        103012        241695   9.09093e-16
     0.042042       287.782       288.313      0.135938      -15.1064      -8.81721             0        -9.855      -3.84375             0       43.7895       8.66279             0       39.2862             0             0      0.209429   5.54302e-16     0.0894403        102205        103021        239221   1.01558e-15
    0.0425425       287.861       288.316      0.133661      -15.3223      -8.48642             0      -10.2621      -3.73151             0       47.0155       9.83925             0        35.918             0             0      0.205577   6.35283e-16      0.106185        102220        103031        236929   1.16396e-15
     0.043043       287.939       288.318      0.131554      -15.5159      -8.14423             0      -10.6542      -3.61431             0       50.2296       11.0015             0       32.5642             0             0       0.20175   7.16745e-16      0.122825        102235        103040        234672   1.31321e-15
    0.0435435        288.02       288.318      0.131244      -15.4732      -7.68077             0       -10.887      -3.44451             0       53.3174       12.0132             0       29.3625             0             0       0.19818    8.0332e-16      0.138346        102249        103049        232780   1.47183e-15
     0.044044       288.099       288.318      0.130968      -15.4161      -7.20991             0      -11.1057      -3.27045             0        56.446       13.0039             0       26.1836             0             0      0.194726   8.88304e-16      0.153363        102262        103057        230934   1.62754e-15
    0.0445445       288.148       288.314      0.131035      -15.2085      -6.66231             0      -11.1792       -3.0522             0       59.9976        13.777             0       23.2415             0             0      0.192472   9.56805e-16      0.163163        102273        103065        229564   1.75305e-15
     0.045045       288.193       288.309      0.131164      -14.9912      -6.11067             0      -11.2403      -2.83091             0        63.683       14.5233             0       20.3211             0             0      0.190396   1.02257e-15      0.172193        102284        103073        228238   1.87355e-15
    0.0455455       288.183         288.3      0.131926      -14.6753      -5.51813             0      -11.1766      -2.57892             0       68.7203       14.9986             0       17.6186             0             0      0.190109   1.06071e-15      0.173438        102293        103081        227366   1.94342e-15