#           y             T         TMean   TPrime2Mean           U_x           U_y           U_z       UMean_x       UMean_y       UMean_z UPrime2Mea... UPrime2Mea... UPrime2Mea... UPrime2Mea... UPrime2Mea... UPrime2Mea...            O2           H2O          C3H8             p         pMean   pPrime2Mean           CO2
            0       287.996        288.01     0.0637031       25.4669             0             0       22.5178             0             0       5.68688             0             0             0             0             0          0.23   4.07011e-22   8.68113e-11        102615        103192        246040    7.4572e-22
  0.000500501       287.996        288.01     0.0637171       25.4844       0.15778             0       22.5195     0.0118667             0           5.7      0.136467             0     0.0409204             0             0          0.23   9.62375e-22   8.90095e-10        102615        103192        245574   1.76325e-21
     0.001001       287.995        288.01     0.0637307       25.5019       0.31557             0       22.5211     0.0237404             0       5.71327      0.272941             0     0.0819513             0             0          0.23   1.52431e-21   1.75116e-09        102615        103192        245106   2.79282e-21
    0.0015015       287.995        288.01     0.0635979       25.5358      0.478338             0       22.5167     0.0390817             0       5.79884      0.412953             0       0.17815             0             0          0.23   5.36359e-21   3.14466e-08        102615        103192        243828    9.8271e-21
     0.002002       287.994        288.01     0.0634648       25.5699      0.641221             0       22.5123     0.0544055             0       5.88468      0.553099             0      0.274788             0             0          0.23   9.27233e-21   6.49508e-08        102616        103192        242547   1.69886e-20
    0.0025025       287.994        288.01     0.0632561        25.645      0.832855             0        22.512     0.0654009             0       6.03547      0.726746             0      0.480935             0             0          0.23   3.04743e-20   1.04686e-06        102615        103192        240543   5.58347e-20
     0.003003       287.994        288.01     0.0630468       25.7204       1.02455             0       22.5115     0.0764755             0       6.18775      0.900432             0      0.687843             0             0      0.229999   5.22104e-20   2.18707e-06        102615        103192        238536   9.56593e-20
    0.0035035       287.994        288.01     0.0627614       25.8422       1.22673             0       22.5004      0.100662             0        6.5856       1.08062             0       1.02061             0             0      0.229993   1.62426e-19   2.95537e-05        102616        103192        235976   2.97595e-19
     0.004004       287.995       288.009     0.0624706       25.9642       1.42984             0       22.4893      0.124768             0       6.98589       1.26218             0       1.35708             0             0      0.229986   2.76396e-19   6.16254e-05        102616        103191        233413   5.06409e-19
    0.0045045       287.998       288.011     0.0615185       26.1164       1.74878             0       22.4893      0.138942             0       7.68919       1.61297             0       2.15297             0             0      0.229844   8.55861e-19   0.000677117        102615        103191        230439    1.5681e-18
   0.00500501       288.002       288.013     0.0606319       26.2703       2.06779             0       22.4888      0.153356             0       8.40143       1.96326             0       2.95641             0             0      0.229692   1.45139e-18    0.00134114        102613        103190        227464   2.65921e-18
   0.00550551       288.027       288.028     0.0662329       26.5932       2.39349             0       22.4455      0.191448             0       9.99984       2.26457             0       4.50747             0             0      0.228434   3.63683e-18    0.00680976        102609        103189        224450   6.66336e-18
   0.00600601       288.054       288.044     0.0727887       26.9148       2.72277             0       22.4021      0.228925             0       11.5958       2.57311             0       6.08777             0             0       0.22713   5.86835e-18     0.0124766        102604        103187        221440   1.07519e-17
   0.00650651       288.183       288.089       0.15796       27.1382       3.34684             0       22.3575      0.215719             0        12.987       3.47716             0       10.0759             0             0      0.222073   1.18934e-17     0.0344669        102599        103183        218814   2.17909e-17
   0.00700701       288.318       288.135      0.248257       27.3543       3.97173             0       22.3134      0.203475             0       14.3506       4.37691             0       14.0865             0             0      0.216948   1.81896e-17     0.0567474        102594        103179        216197   3.33268e-17
   0.00750751       288.899       288.208      0.699577       27.0636       4.65468             0       22.3112      0.258958             0       13.7624       4.97419             0       19.6823             0             0      0.207123   4.35837e-17     0.0994667        102580        103173        214158   7.98535e-17
   0.00800801       289.607       288.282       1.20682       26.7579       5.32936             0       22.2989      0.312414             0       13.1591        5.5313             0       25.2893             0             0      0.197311   7.58471e-17      0.142126        102567        103167        212119   1.38966e-16
   0.00850851       298.065       288.415       5.15323       25.5352       5.49601             0        21.657      0.241192             0       11.6287       3.61818             0       31.5812             0             0      0.188349   5.30573e-16      0.181093        102543        103159        210138   9.72109e-16
   0.00900901       306.597       288.548       9.13438       24.3005        5.6681             0       21.0129      0.170288             0       10.0969       1.68862             0       37.8302             0             0      0.179519   1.03699e-15      0.219483        102519        103151        208134   1.89996e-15
   0.00950951       319.182        288.67       15.0113       22.4125       6.13732             0       20.2504      0.116731             0       8.48182      -1.13753             0       41.7424             0             0      0.177937   4.36331e-15      0.226362        102513        103146        204878    7.9944e-15
      0.01001       331.686       288.791       20.8451       20.5207       6.60453             0       19.4814      0.066315             0       6.89237       -3.9331             0       45.5532             0             0       0.17647   8.04398e-15      0.232738        102507        103142        201595   1.47381e-14
    0.0105105       340.257       288.815       24.5636       18.4481       6.97307             0       18.3998      0.169828             0       6.55751      -5.23034             0        44.402             0             0      0.180675   2.90876e-14      0.214454        102518        103148        196970   5.32939e-14
     0.011011        348.76       288.836       28.2302       16.3833       7.32732             0       17.3027      0.272638             0       6.24394      -6.49058             0       43.1661             0             0      0.184806   5.04976e-14      0.196496        102530        103153        192326    9.2521e-14
    0.0115115       354.223       288.768       29.5944       14.6663       7.04624             0       15.5183      0.344185             0       6.87667      -6.10604             0       38.1689             0             0      0.185617   8.81959e-14       0.19297        102545        103162        186836   1.61591e-13
     0.012012       359.557       288.699        30.896        12.957       6.75421             0       13.7369      0.413835             0       7.49056      -5.69527             0       33.1305             0             0      0.186147   1.25147e-13      0.190664        102559        103171        181359   2.29293e-13
    0.0125125       359.652       288.617       29.6506       11.5564       6.01659             0       12.0728       0.40632             0       7.33809       -4.2175             0       26.4138             0             0      0.175274   1.31721e-13       0.23794        102572        103178        176403   2.41338e-13
     0.013013       359.616       288.536       28.3531       10.1832       5.27779             0       10.4352      0.396923             0       7.17257      -2.74848             0       19.7727             0             0      0.164029    1.3724e-13      0.286829        102584        103185        171487   2.51449e-13
    0.0135135       354.647        288.52       25.1031       9.83879       4.49505             0       9.78607      0.316999             0       6.51787      -1.60751             0       15.9689             0             0      0.138885   1.03214e-13      0.396151        102590        103188        168060   1.89108e-13
     0.014014       349.665       288.506       21.8674       9.52069       3.72151             0       9.16226      0.239734             0       5.86252     -0.491982             0       12.2238             0             0      0.113701   6.93973e-14      0.505648        102596        103192        164660   1.27149e-13
    0.0145145       344.196       288.526       19.1284       10.1172       3.26769             0       9.41738      0.254787             0       5.18462     -0.259626             0       10.5184             0             0     0.0871117     4.282e-14      0.621254        102597        103193        162191   7.84542e-14
     0.015015       338.858       288.548       16.4688        10.701       2.81535             0       9.66943      0.268207             0       4.52681    -0.0344971             0       8.84892             0             0     0.0611849   1.69027e-14      0.733979        102597        103195        159755   3.09689e-14
    0.0155155       337.743       288.576       16.3764        10.876       2.41057             0       9.82244      0.228879             0       4.51873    -0.0430667             0       8.34048             0             0     0.0566787   1.23259e-14      0.753571        102594        103194        158404   2.25834e-14
     0.016016       336.397         288.6       16.1732       11.0515        2.0104             0       9.99443      0.187229             0       4.59237    -0.0812753             0       7.87093             0             0     0.0529799   7.85848e-15      0.769652        102592        103194        157071   1.43982e-14
    0.0165165       328.065       288.518        12.622        11.245       1.74993             0       10.7406     0.0753441             0        7.1378      -1.01606             0       8.57802             0             0     0.0737086   6.69769e-15      0.679528        102595        103193        156304   1.22714e-14
     0.017017       319.597       288.435       9.04405       11.5303       1.48435             0       11.5526    -0.0409156             0       9.70045      -1.96384             0       9.27248             0             0     0.0948966   5.49395e-15      0.587406        102598        103192        155534   1.00659e-14
    0.0175175       307.234        288.32        4.7076       14.4244       1.07337             0       14.2362     -0.281481             0       12.7521      -3.28068             0       9.60785             0             0      0.129135   3.06973e-15      0.438543        102603        103192        154675   5.62431e-15
     0.018018       295.192       288.208      0.519934       17.3145      0.668964             0        16.911     -0.513797             0       15.7308      -4.56694             0       9.94445             0             0      0.163059    7.2062e-16      0.291047        102607        103192        153815   1.32031e-15
    0.0185185        291.73       288.161      0.316405       20.0996      0.440833             0       19.3492     -0.525209             0       16.7556      -5.03426             0       10.3138             0             0       0.18856   3.83106e-16      0.180172        102603        103191        152913   7.01922e-16
     0.019019       288.392       288.114      0.119962        22.779      0.212386             0       21.7201      -0.53427             0       17.7358      -5.47758             0       10.6635             0             0      0.213366   5.74742e-17     0.0723235        102600        103190        152041   1.05303e-16
    0.0195195        288.18       288.074      0.102912       22.7809    -0.0240764             0        22.388     -0.483813             0       17.5881      -5.31335             0       10.5145             0             0      0.220551   3.26343e-17     0.0410819        102596        103190        151958   5.97922e-17
      0.02002       287.977       288.034     0.0860989       22.7925     -0.266869             0       23.0397     -0.434519             0       17.4216      -5.14621             0       10.3633             0             0      0.227496   8.73356e-18     0.0108877        102592        103191        151894   1.60015e-17
    0.0205205       287.984       288.016     0.0749634       23.0355     -0.661586             0       23.3053     -0.413139             0       16.8067      -4.90959             0       10.1587             0             0      0.228659   7.36992e-18    0.00583167        102589        103191        152307   1.35031e-17
     0.021021       287.991       287.999      0.064119       23.2672      -1.05415             0       23.5557     -0.387728             0       16.2009       -4.6553             0       10.0001             0             0       0.22977   6.54045e-18    0.00100135        102587        103190        152718   1.19833e-17
    0.0215215       287.996           288     0.0599119       23.2399      -1.39758             0       23.4622     -0.270356             0       15.8031      -3.99796             0       10.8889             0             0      0.229697   1.78951e-17    0.00131812        102584        103188        153101   3.27872e-17
     0.022022       288.001       288.002      0.055755       23.1634      -1.74487             0       23.3449     -0.152376             0       15.4205      -3.28931             0       11.8115             0             0      0.229603   3.05964e-17    0.00172616        102581        103186        153491   5.60582e-17
    0.0225225       288.004       288.024     0.0526876       22.0175      -2.17577             0       22.7114    -0.0211984             0       15.3689      -1.46594             0       13.4693             0             0      0.229053    7.2556e-17     0.0041173        102580        103183        154048   1.32936e-16
     0.023023       288.008       288.047     0.0496921       20.7787      -2.58608             0       22.0255      0.116515             0       15.4058       0.42116             0       15.1387             0             0      0.228479   1.16475e-16    0.00661118        102578        103180        154599   2.13403e-16
    0.0235235       288.007       288.092     0.0481898       17.6115      -2.56917             0       20.2526      0.389778             0       17.2795       3.62995             0       17.0474             0             0      0.227416   2.01023e-16     0.0112358        102580        103176        155027   3.68311e-16
     0.024024       288.007       288.138     0.0470263       14.3567      -2.54459             0       18.4171        0.6568             0       19.4794        6.7763             0       19.0056             0             0      0.226348   2.86466e-16     0.0158783        102581        103172        155472   5.24859e-16
    0.0245245       288.014       288.198     0.0525838        9.3644      -2.36757             0        15.338      0.800052             0       28.1473       8.68433             0       21.9437             0             0      0.225199   3.89672e-16     0.0208746        102581        103166        156247   7.13951e-16
     0.025025       288.023       288.258     0.0584161        4.4555      -2.20647             0       12.2698      0.928977             0       37.1465       10.4088             0       24.9452             0             0      0.224046   4.94029e-16     0.0258862        102581        103161        157015   9.05153e-16
    0.0255255       288.062       288.308     0.0694722       1.13151      -2.34781             0          9.41      0.785683             0        52.439       8.64576             0       29.1511             0             0      0.222827   6.20279e-16     0.0311868        102577        103154        157638   1.13647e-15
     0.026026       288.101       288.358      0.080405      -2.04942      -2.49988             0       6.60965      0.635862             0       67.4947       6.80909             0       33.3516             0             0      0.221611   7.46089e-16     0.0364719        102572        103147        158259   1.36697e-15
    0.0265265       288.158       288.386     0.0890894      -2.62251      -2.84747             0       4.89357      0.367048             0       78.2346       3.63014             0       37.4561             0             0      0.220461   8.63888e-16     0.0414743        102566        103140        158854    1.5828e-15
     0.027027       288.213       288.413     0.0974776      -3.16007       -3.2005             0       3.21392     0.0929714             0        88.348      0.440972             0       41.5126             0             0      0.219334   9.77877e-16     0.0463755        102560        103132        159483   1.79165e-15
    0.0275275       288.258        288.43      0.100675      -3.07539      -3.64882             0       2.17261     -0.273287             0       87.4858      -2.92708             0       44.7281             0             0      0.218614   1.02512e-15     0.0495024        102553        103124        160718   1.87821e-15
     0.028028       288.303       288.446      0.103684      -3.01161      -4.09049             0       1.15003     -0.641884             0       86.1973      -6.27563             0       47.8459             0             0      0.217872   1.07014e-15     0.0527298        102546        103116        161994   1.96069e-15
    0.0285285       288.336       288.458      0.103513      -3.30011      -4.42001             0      0.443229       -1.0499             0       77.7231      -9.29539             0       49.3157             0             0       0.21674   1.07761e-15     0.0576504        102538        103109        163966   1.97438e-15
     0.029029       288.369        288.47      0.103213        -3.593      -4.74444             0     -0.258796       -1.4562             0       69.1211      -12.2104             0       50.6835             0             0      0.215597   1.08485e-15     0.0626227        102530        103101        165965   1.98765e-15
    0.0295295       288.388        288.48      0.100813      -3.95704      -4.98615             0     -0.883225      -1.83459             0       58.4432       -13.424             0       50.3942             0             0       0.21426   1.08841e-15     0.0684345        102522        103096        168403   1.99417e-15
      0.03003       288.406        288.49     0.0983721      -4.31403      -5.22306             0        -1.504      -2.20972             0       47.8677      -14.5126             0       50.0256             0             0      0.212968    1.0919e-15     0.0740525        102513        103091        170843   2.00056e-15
    0.0305305       288.402       288.498     0.0952808      -4.56055      -5.38488             0      -2.06748      -2.53377             0       38.8988      -13.6427             0       48.4174             0             0      0.212374    1.0944e-15     0.0766341        102505        103088        173317   2.00514e-15
     0.031031       288.398       288.506     0.0922922      -4.80259      -5.54499             0      -2.62539      -2.85173             0       30.2229       -12.687             0        46.754             0             0      0.211822   1.09684e-15     0.0790366        102497        103085        175779   2.00962e-15
    0.0315315       288.386       288.511     0.0908572      -4.97679       -5.6793             0      -3.09902      -3.07753             0       25.9807      -10.4324             0       44.2549             0             0      0.211892   1.09856e-15     0.0787289        102488        103086        178062   2.01276e-15
     0.032032       288.375       288.515     0.0895339      -5.14301      -5.81065             0      -3.56205      -3.29734             0       22.0213      -8.16956             0       41.7291             0             0      0.211977    1.1002e-15     0.0783617        102480        103086        180349   2.01577e-15
    0.0325325       288.365       288.516     0.0898432      -5.19253      -5.89868             0      -3.87008      -3.42937             0       22.1982      -5.78523             0       38.8137             0             0      0.212261   1.10079e-15     0.0771248        102473        103090        182704   2.01686e-15
     0.033033       288.355       288.517     0.0901937      -5.23555       -5.9838             0      -4.16561      -3.55579             0       22.5027      -3.44103             0       35.8963             0             0      0.212566   1.10125e-15     0.0757986        102466        103093        185099    2.0177e-15
    0.0335335       288.343       288.517     0.0911249      -5.18672      -6.02781             0      -4.28436      -3.60294             0       24.6125       -1.6648             0       32.9518             0             0      0.213162   1.09981e-15     0.0732079        102459        103098        188056   2.01505e-15
     0.034034       288.331       288.517     0.0920363      -5.12893       -6.0681             0      -4.39187       -3.6464             0       26.7117     0.0691592             0       30.0274             0             0      0.213783   1.09818e-15     0.0705083        102453        103103        191053   2.01207e-15
    0.0345345       288.315       288.517     0.0926752      -4.94854      -6.05738             0      -4.34545       -3.6393             0       28.6652       1.22368             0       27.3777             0             0      0.214747   1.09406e-15     0.0663166        102448        103108        194582   2.00452e-15
     0.035035       288.299       288.518     0.0932326      -4.76171      -6.04184             0      -4.29074      -3.62888             0       30.5308       2.34537             0       24.7531             0             0      0.215713   1.08982e-15     0.0621171        102443        103113        198125   1.99676e-15
    0.0355355       288.287        288.52     0.0927078      -4.48952      -5.96233             0      -4.12577      -3.57431             0       31.2298       3.03076             0       22.4604             0             0      0.216703   1.08402e-15     0.0578136        102438        103117        201863   1.98613e-15
     0.036036       288.275       288.523       0.09205      -4.20979      -5.87788             0      -3.95387      -3.51634             0       31.8104       3.67428             0       20.1931             0             0      0.217675   1.07822e-15     0.0535851        102434        103122        205583   1.97551e-15
    0.0365365       288.268       288.529     0.0896792      -3.83285      -5.72985             0      -3.69246      -3.41448             0       30.8642       3.77805             0       18.2524             0             0      0.218426   1.07251e-15     0.0503222        102431        103125        209075   1.96504e-15
     0.037037       288.261       288.534     0.0872415       -3.4499      -5.57747             0      -3.42666      -3.30908             0        29.822       3.84135             0       16.3409             0             0      0.219147   1.06679e-15     0.0471885        102427        103129        212531   1.95455e-15
    0.0375375       288.257       288.543      0.083967      -2.99152      -5.37069             0      -3.10574      -3.15931             0       27.5801       3.39833             0        14.793             0             0      0.219496   1.06094e-15     0.0456707        102424        103131        215534   1.94383e-15
     0.038038       288.253       288.552     0.0806828      -2.52806      -5.16148             0      -2.78313      -3.00715             0       25.3258       2.93931             0       13.2785             0             0       0.21983   1.05506e-15     0.0442186        102421        103134        218495   1.93307e-15
    0.0385385       288.249       288.562     0.0772819      -2.00262       -4.9227             0      -2.43982      -2.82581             0       22.9201       2.28569             0       12.1707             0             0       0.21998   1.04888e-15     0.0435659        102418        103135        220946   1.92174e-15
     0.039039       288.245       288.572     0.0739235      -1.47461      -4.68307             0       -2.0967      -2.64337             0       20.5669       1.63866             0       11.0882             0             0      0.220121   1.04262e-15     0.0429514        102415        103137        223361   1.91027e-15
    0.0395395       288.241        288.58     0.0710686     -0.916155      -4.43334             0      -1.75574      -2.44799             0       18.8346       1.06962             0       10.3052             0             0      0.220159   1.03544e-15     0.0427877        102412        103138        225349   1.89711e-15
      0.04004       288.237       288.588     0.0683341     -0.356573      -4.18493             0      -1.41468      -2.25282             0       17.1554      0.510497             0       9.53289             0             0      0.220189   1.02814e-15     0.0426551        102409        103140        227307   1.88375e-15
    0.0405405       288.232       288.594     0.0669859      0.215955      -3.95171             0      -1.07257         -2.06             0       16.0868     0.0653658             0       8.88314             0             0      0.220138   1.01953e-15     0.0428794        102407        103141        228902   1.86797e-15
     0.041041       288.229       288.599      0.065711       0.78722      -3.72007             0     -0.729053      -1.86777             0       15.0353     -0.367578             0       8.23501             0             0      0.220079   1.01102e-15     0.0431328        102405        103142        230471   1.85237e-15
    0.0415415       288.227       288.605      0.065257       1.34433      -3.50609             0     -0.369821      -1.68224             0       14.1749     -0.664084             0       7.60501             0             0      0.219946   1.00357e-15     0.0437108        102403        103143        231748   1.83874e-15
     0.042042       288.226        288.61     0.0648347       1.89883      -3.29331             0   -0.00921923      -1.49778             0       13.3314     -0.943911             0       6.97404             0             0      0.219812   9.96392e-16     0.0442937        102401        103144        232998   1.82558e-15
    0.0425425       288.225       288.615      0.064758       2.42489      -3.09366             0      0.366315      -1.32498             0       12.6721      -1.04185             0       6.33244             0             0      0.219666   9.92032e-16     0.0449297        102400        103146        233966   1.81759e-15
     0.043043       288.225        288.62     0.0646939       2.94625      -2.89455             0      0.740991      -1.15378             0       12.0618      -1.12337             0       5.69142             0             0      0.219519   9.87958e-16     0.0455713        102399        103147        234911   1.81012e-15
    0.0435435       288.225       288.624     0.0647652       3.41769        -2.701             0       1.10655     -0.999481             0       11.9725       -1.0303             0       5.05657             0             0      0.219357   9.86923e-16     0.0462737        102399        103149        235612   1.80823e-15
     0.044044       288.226       288.628     0.0647806       3.88353      -2.50782             0       1.47014     -0.846891             0       11.9386     -0.926628             0       4.42745             0             0      0.219189   9.86471e-16     0.0470032        102399        103151        236297    1.8074e-15
    0.0445445        288.23       288.631     0.0642156        4.2913      -2.31848             0       1.81347     -0.712053             0       12.4799     -0.713092             0       3.85778             0             0      0.218957   9.92073e-16     0.0480139        102399        103153        236821   1.81766e-15
     0.045045       288.235       288.634     0.0634972       4.69233      -2.12891             0       2.15232     -0.579849             0        13.055     -0.497718             0       3.29478             0             0      0.218714   9.98711e-16     0.0490702        102400        103154        237339   1.82982e-15
    0.0455455       288.248       288.635      0.061228       5.02525      -1.93716             0        2.4458     -0.474281             0       13.9717      -0.26377             0       2.79926             0             0      0.218365   1.01583e-15     0.0505872        102402        103157        237795   1.86119e-15