#           y             T         TMean   TPrime2Mean           U_x           U_y           U_z       UMean_x       UMean_y       UMean_z UPrime2Mea... UPrime2Mea... UPrime2Mea... UPrime2Mea... UPrime2Mea... UPrime2Mea...            O2           H2O          C3H8             p         pMean   pPrime2Mean           CO2
  1.11022e-19       287.782       288.103      0.126919       23.8397  -6.69207e-17             0       19.6789  -2.08914e-16             0       23.9692  -6.64454e-17             0    4.4937e-16             0             0      0.229769   8.90359e-18    0.00100289        102418        103205        216751    1.6313e-17
  0.000500501       287.789       288.105      0.128759       23.8557     0.0407303             0       19.6814     0.0595978             0       24.0195    -0.0338609             0     0.0531682             0             0      0.229419    1.3734e-17    0.00252793        102417        103205        216698   2.51633e-17
     0.001001       287.796       288.107      0.130608       23.8716     0.0814543             0        19.684      0.119196             0       24.0701     -0.067707             0      0.106493             0             0      0.229065    1.8588e-17    0.00406638        102417        103205        216645   3.40567e-17
    0.0015015       287.837       288.114      0.137103       23.9225      0.119063             0       19.6929      0.178867             0       24.2156    -0.0941745             0      0.237676             0             0      0.227173   3.51913e-17     0.0122931        102416        103205        216472   6.44771e-17
     0.002002       287.877       288.121      0.143605       23.9734      0.156638             0       19.7018      0.238539             0       24.3619     -0.120642             0      0.369278             0             0      0.225269   5.18385e-17     0.0205689        102416        103205        216298   9.49778e-17
    0.0025025       287.978       288.134      0.151718       24.0545      0.185729             0       19.7163      0.298282             0       24.6922       -0.1471             0      0.605105             0             0      0.220552   7.94065e-17     0.0410774        102414        103204        216038   1.45488e-16
     0.003003       288.078       288.146      0.159809       24.1361      0.214914             0       19.7308      0.358027             0       25.0235     -0.173471             0      0.841637             0             0      0.215829    1.0696e-16     0.0616145        102413        103204        215779   1.95971e-16
    0.0035035        288.19       288.165       0.16439       24.2905      0.259525             0       19.7578      0.418115             0       25.5193     -0.185437             0       1.19493             0             0      0.210014   1.32142e-16     0.0868954        102412        103203        215496   2.42108e-16
     0.004004         288.3       288.184      0.168934        24.446      0.304203             0       19.7848      0.478221             0        26.014     -0.197224             0        1.5492             0             0      0.204211   1.57232e-16      0.112127        102411        103203        215213   2.88079e-16
    0.0045045       288.351       288.197      0.168831       24.7188      0.357285             0       19.8039       0.54065             0       26.3564     -0.186762             0       2.02482             0             0      0.199805   1.71005e-16      0.131284        102409        103202        214897   3.13313e-16
   0.00500501       288.401       288.211      0.168701       24.9908       0.41194             0       19.8226      0.603105             0       26.6943     -0.175636             0       2.50133             0             0      0.195411   1.84717e-16      0.150386        102408        103202        214582   3.38437e-16
   0.00550551       288.406       288.216      0.165741       25.1848      0.622318             0       19.8029      0.668198             0       26.5732    -0.0987364             0       3.06526             0             0      0.192272   1.92501e-16      0.164037        102406        103201        214229   3.52698e-16
   0.00600601        288.41       288.221      0.162793       25.3744      0.833574             0       19.7821      0.733358             0        26.446    -0.0199322             0       3.62909             0             0      0.189125   2.00309e-16      0.177718        102404        103200        213877   3.67004e-16
   0.00650651       288.432       288.225      0.160748       25.2005        1.1171             0       19.6806      0.804007             0       25.8158      0.215656             0       4.18421             0             0      0.185404   2.10168e-16      0.193896        102401        103199        213516   3.85067e-16
   0.00700701       288.453       288.229       0.15872       25.0175       1.39908             0       19.5772      0.874744             0       25.1831      0.455182             0       4.73849             0             0      0.181682   2.20048e-16      0.210079        102398        103199        213155   4.03169e-16
   0.00750751        288.43       288.241      0.157902       24.1915       1.57247             0       19.3459       0.95176             0       24.3746      0.972076             0       5.23413             0             0      0.177873   2.31427e-16      0.226638        102396        103198        212715   4.24017e-16
   0.00800801       288.406       288.253      0.157139       23.3627        1.7412             0       19.1123       1.02872             0       23.5683       1.49066             0        5.7293             0             0      0.174087   2.42811e-16      0.243099        102393        103197        212273   4.44874e-16
   0.00850851       288.323       288.273       0.15973       22.3614       1.62318             0       18.7403       1.10211             0       22.8931       2.11329             0        6.1953             0             0      0.171699   2.54547e-16      0.253485        102393        103197        211743   4.66378e-16
   0.00900901       288.241       288.293      0.162395       21.3621       1.50113             0       18.3665       1.17498             0        22.224       2.72794             0       6.66327             0             0       0.16931   2.66436e-16      0.263871        102392        103196        211214    4.8816e-16
   0.00950951       288.233       288.311      0.169025       20.4681       1.15963             0       17.8929       1.21933             0        21.893       2.90801             0       7.23839             0             0       0.16691   2.86631e-16      0.274303        102392        103195        210741   5.25162e-16
      0.01001       288.226       288.328      0.175629       19.5673      0.817824             0       17.4192       1.26303             0       21.5857       3.07695             0         7.818             0             0      0.164512   3.06937e-16       0.28473        102391        103194        210270   5.62366e-16
    0.0105105       288.248       288.333      0.180923       18.3391      0.460844             0       16.9429       1.27517             0       22.4358       2.70093             0       8.61737             0             0      0.162163   3.32666e-16      0.294944        102391        103193        209895   6.09506e-16
     0.011011        288.27       288.337      0.186183       17.1118      0.104769             0        16.467       1.28702             0       23.3292         2.322             0       9.41944             0             0      0.159835   3.58356e-16      0.305064        102390        103191        209525   6.56576e-16
    0.0115115       288.249       288.325      0.189933       15.9286     -0.211067             0       16.0075       1.28605             0       26.1459       1.81379             0       10.3415             0             0      0.158459   3.82318e-16      0.311046        102390        103190        209379   7.00478e-16
     0.012012       288.228       288.313      0.193829       14.7508     -0.524172             0       15.5476       1.28513             0       29.0012       1.30803             0       11.2645             0             0      0.157098   4.06166e-16      0.316966        102391        103188        209240   7.44172e-16
    0.0125125       288.185       288.295      0.203669       13.7908     -0.726239             0       15.0708       1.28653             0       33.4217      0.902399             0       12.2239             0             0      0.156326   4.25373e-16       0.32032        102391        103187        209428   7.79362e-16
     0.013013       288.143       288.277      0.213743       12.8295     -0.927065             0       14.5955       1.28746             0       37.8467      0.493953             0       13.1891             0             0      0.155567   4.44384e-16      0.323624        102392        103185        209624   8.14194e-16
    0.0135135       288.109       288.266      0.232567       11.8235      -1.08141             0       14.1775       1.27053             0       42.4392    -0.0199501             0       14.3723             0             0      0.155245   4.56065e-16      0.325021        102394        103183        210128   8.35596e-16
     0.014014       288.077       288.256      0.251434       10.8177      -1.23322             0       13.7621         1.253             0       47.0014     -0.538443             0       15.5647             0             0       0.15492   4.67709e-16      0.326435        102395        103181        210640    8.5693e-16
    0.0145145       288.103       288.256      0.271732       9.81966      -1.29661             0       13.4405       1.21451             0       50.5094      -1.21628             0       17.0777             0             0      0.154471   4.78069e-16      0.328387        102398        103179        211416   8.75911e-16
     0.015015       288.131       288.255      0.291916       8.82942      -1.35695             0       13.1199       1.17598             0       53.9755      -1.89284             0       18.5934             0             0      0.154018   4.88431e-16      0.330354        102401        103176        212200   8.94897e-16
    0.0155155       288.187       288.259      0.308424       8.09137      -1.31823             0       12.8299       1.13613             0       56.0865      -2.52844             0       20.1962             0             0       0.15346   4.98887e-16      0.332784        102405        103174        213243   9.14055e-16
     0.016016       288.242       288.263       0.32481       7.35481      -1.26978             0       12.5406       1.09682             0        58.159      -3.15937             0       21.7975             0             0      0.152929   5.09176e-16      0.335091        102408        103172        214294   9.32906e-16
    0.0165165       288.279        288.27      0.337462       6.66342     -0.926789             0       12.2691       1.07331             0       59.0671      -3.64917             0       23.3542             0             0      0.153248    5.1441e-16      0.333705        102413        103169        215584   9.42494e-16
     0.017017       288.314       288.277      0.349987       5.96497     -0.570841             0       11.9987       1.05042             0       59.9491      -4.13579             0       24.9108             0             0      0.153612   5.19489e-16      0.332123        102417        103167        216879   9.51801e-16
    0.0175175       288.327       288.287      0.358907       5.06609      0.153376             0       11.7578       1.04538             0       60.0926      -4.53181             0        26.466             0             0      0.155253   5.20205e-16      0.324986        102422        103165        218317   9.53112e-16
     0.018018        288.34       288.297      0.367678       4.17189      0.880599             0       11.5173       1.04101             0       60.2116      -4.92644             0       28.0225             0             0      0.156912   5.21008e-16      0.317772        102427        103163        219758   9.54585e-16
    0.0185185       288.339       288.309      0.372465       3.40332       1.68832             0       11.2854       1.05468             0       59.6749      -5.28399             0        29.616             0             0      0.159043   5.24167e-16      0.308509        102431        103162        221272   9.60371e-16
     0.019019       288.339       288.321      0.377095        2.6508       2.48498             0       11.0528       1.06915             0       59.1035      -5.63909             0       31.2089             0             0      0.161148   5.27621e-16      0.299358        102435        103160        222786     9.667e-16
    0.0195195       288.339       288.331      0.377718       2.30462       3.00126             0       10.8027       1.10381             0       57.6496      -5.93215             0       32.7833             0             0      0.162601   5.38581e-16       0.29304        102438        103158        224271    9.8678e-16
      0.02002        288.34       288.342      0.378188       1.97779       3.49911             0       10.5518       1.13963             0       56.1661      -6.22083             0        34.355             0             0      0.164015   5.49677e-16      0.286889        102442        103156        225753   1.00711e-15
    0.0205205       288.345        288.35      0.374969       2.11535       3.55432             0       10.2812       1.20325             0       53.9705      -6.40437             0       35.8599             0             0        0.1645   5.64052e-16      0.284781        102445        103154        227159   1.03345e-15
     0.021021        288.35       288.359      0.371765       2.26791       3.59236             0       10.0107       1.26824             0       51.7694      -6.58058             0       37.3628             0             0      0.164948   5.78405e-16      0.282836        102448        103153        228560   1.05975e-15
    0.0215215       288.359       288.368      0.368886       2.76278       3.23848             0       9.74374       1.36447             0       49.4447       -6.5894             0       38.8178             0             0      0.164545   5.92266e-16      0.284586        102451        103151        229825   1.08514e-15
     0.022022       288.368       288.377      0.366184       3.26308       2.87521             0       9.47824       1.46217             0       47.1292      -6.58876             0        40.271             0             0      0.164103   6.06174e-16      0.286508        102454        103150        231082   1.11062e-15
    0.0225225       288.383       288.385      0.367338       3.88135       2.30793             0       9.24436       1.59154             0       45.0161      -6.38268             0       41.6882             0             0      0.162806   6.21141e-16      0.292147        102457        103149        232167   1.13805e-15
     0.023023       288.398       288.393      0.368542       4.49307       1.74129             0       9.01251       1.72216             0       42.9025      -6.16643             0       43.1055             0             0      0.161472   6.35953e-16      0.297946        102460        103148        233243   1.16518e-15
    0.0235235       288.424       288.397      0.370784       4.96874       1.18791             0       8.82246       1.87885             0       40.7794      -5.73928             0       44.5262             0             0      0.159376   6.47566e-16       0.30706        102463        103147        234124   1.18646e-15
     0.024024        288.45       288.401      0.372875       5.43327      0.638512             0       8.63399       2.03673             0       38.6465      -5.29802             0       45.9477             0             0       0.15732   6.58483e-16      0.315998        102466        103146        234995   1.20646e-15
    0.0245245       288.466         288.4      0.371983       5.67675      0.168077             0       8.47691       2.21814             0       36.3215      -4.57676             0       47.3854             0             0      0.156063   6.55568e-16      0.321465        102468        103145        235649   1.20112e-15
     0.025025       288.478         288.4      0.370954        5.9166     -0.305737             0       8.32099        2.4008             0       33.9994      -3.83542             0       48.8241             0             0      0.155052   6.51623e-16      0.325861        102471        103145        236285    1.1939e-15
    0.0255255       288.405       288.396      0.367344       6.08747     -0.843764             0       8.18694       2.60719             0       31.7336      -2.71248             0        50.283             0             0      0.158723   6.28117e-16        0.3099        102473        103144        236594   1.15083e-15
     0.026026       288.329       288.392      0.363735       6.26111      -1.38895             0       8.05392       2.81483             0       29.4987      -1.56643             0       51.7439             0             0      0.162592   6.04332e-16      0.293079        102474        103144        236880   1.10725e-15
    0.0265265       288.189       288.386      0.360148       6.48519      -2.06476             0       7.93952       3.04544             0       27.8252   0.000868249             0       53.2439             0             0      0.170069   5.75473e-16      0.260569        102476        103144        236759   1.05437e-15
     0.027027       288.052       288.379      0.356563       6.70426       -2.7367             0        7.8255         3.277             0       26.2039       1.59032             0       54.7434             0             0      0.177442   5.47552e-16      0.228511        102477        103143        236614   1.00322e-15
    0.0275275       287.953       288.371      0.353019       6.83557      -3.34114             0       7.71825        3.5253             0       25.4963       3.56786             0       56.2347             0             0      0.182996   5.36062e-16      0.204366        102478        103143        236064   9.82165e-16
     0.028028       287.857       288.364      0.349385       6.95346      -3.93045             0       7.61054       3.77398             0       24.8408       5.55915             0       57.7156             0             0      0.188387   5.25703e-16      0.180924        102478        103144        235490   9.63186e-16
    0.0285285       287.809       288.356      0.344235       6.84518      -4.26496             0         7.495       4.02883             0        25.063        7.7822             0       59.0228             0             0      0.191057   5.34432e-16      0.169317        102479        103144        234528   9.79179e-16
     0.029029       287.763       288.349      0.338966       6.72639      -4.58474             0       7.37872       4.28361             0       25.3238       10.0042             0       60.3104             0             0       0.19364    5.4392e-16      0.158085        102479        103144        233551   9.96562e-16
    0.0295295       287.736       288.344      0.331777       6.43698      -4.66538             0       7.25032       4.53724             0       26.2104       12.2086             0       61.2804             0             0      0.194822   5.65729e-16      0.152946        102479        103145        232335   1.03652e-15
      0.03003        287.71       288.339      0.324558       6.14385      -4.73647             0       7.12162       4.79065             0       27.1234       14.3982             0       62.2301             0             0      0.195949    5.8817e-16      0.148047        102478        103146        231108   1.07764e-15
    0.0305305       287.694       288.335      0.316878        5.7923      -4.65814             0       6.98833       5.04089             0       28.4503        16.356             0       62.8615             0             0      0.196217   6.20504e-16      0.146884        102477        103147        229736   1.13688e-15
     0.031031       287.678       288.332      0.309231       5.44177      -4.57501             0       6.85525       5.29079             0       29.7987       18.2915             0       63.4776             0             0      0.196445    6.5317e-16       0.14589        102476        103148        228363   1.19673e-15
    0.0315315       287.674       288.329       0.30208        5.1065      -4.41943             0       6.72526       5.53538             0       31.4728       19.8882             0       63.8621             0             0      0.196089    6.9087e-16       0.14744        102475        103149        226972    1.2658e-15
     0.032032        287.67       288.325      0.295033       4.77505      -4.26312             0       6.59549       5.77922             0       33.1677       21.4595             0       64.2346             0             0      0.195707   7.28635e-16      0.149098        102475        103150        225590     1.335e-15
    0.0325325       287.677       288.321      0.289508       4.49933      -4.09622             0        6.4691       6.01199             0       35.1661       22.6587             0       64.4328             0             0      0.194961   7.67352e-16      0.152342        102474        103152        224333   1.40593e-15
     0.033033       287.684       288.316      0.284209       4.22783      -3.93089             0        6.3426        6.2433             0       37.1799       23.8289             0       64.6166             0             0      0.194191   8.06029e-16      0.155691        102473        103153        223088    1.4768e-15
    0.0335335       287.701        288.31      0.282095       4.01598      -3.78785             0       6.21467       6.45407             0       39.4132       24.5878             0       64.5968             0             0       0.19308   8.44145e-16      0.160521        102472        103155        222012   1.54663e-15
     0.034034        287.72       288.304      0.280234       3.80741      -3.64684             0       6.08609       6.66253             0       41.6501       25.3116             0       64.5549             0             0      0.191947   8.81898e-16      0.165448        102471        103157        220952    1.6158e-15
    0.0345345       287.752       288.298      0.281823       3.64379      -3.53351             0       5.94865       6.83916             0       43.9373       25.5534             0         64.21             0             0      0.190506   9.14673e-16      0.171714        102471        103159        220111   1.67585e-15
     0.035035       287.785       288.291      0.283553       3.48182       -3.4214             0       5.80973       7.01249             0       46.2166       25.7553             0       63.8351             0             0      0.189061   9.46722e-16      0.177997        102470        103161        219290   1.73457e-15
    0.0355355       287.828       288.286      0.287138       3.34164      -3.32535             0        5.6511       7.14189             0       48.3909        25.426             0       63.0616             0             0      0.187562   9.69121e-16      0.184513        102470        103164        218723   1.77561e-15
     0.036036       287.871       288.281      0.290648        3.2005       -3.2283             0       5.48997       7.26711             0        50.552       25.0558             0        62.253             0             0      0.186065   9.91003e-16      0.191021        102470        103167        218173    1.8157e-15
    0.0365365       287.922       288.278      0.293184       3.04691      -3.11819             0       5.29652       7.33839             0       52.5428       24.1595             0       60.9921             0             0       0.18459   1.00624e-15      0.197435        102471        103170        217845   1.84361e-15
     0.037037       287.972       288.276      0.295563       2.89072      -3.00532             0       5.09973       7.40492             0       54.5198       23.2257             0       59.6938             0             0      0.183136   1.02113e-15      0.203757        102472        103173        217531    1.8709e-15
    0.0375375       288.019       288.275      0.295987       2.70206      -2.85778             0       4.86113       7.41214             0       56.3246       21.8236             0       57.9277             0             0      0.181945   1.03179e-15      0.208934        102473        103177        217398   1.89044e-15
     0.038038       288.064       288.274      0.296318       2.51166      -2.70724             0       4.61847       7.41454             0        58.121       20.3945             0       56.1252             0             0      0.180796   1.04203e-15      0.213931        102473        103180        217279    1.9092e-15
    0.0385385       288.098       288.273      0.295517        2.3002      -2.52007             0       4.32635       7.35834             0       59.8157       18.6376             0       53.8797             0             0      0.180153   1.04711e-15      0.216728        102475        103184        217339    1.9185e-15
     0.039039       288.133       288.272      0.294513       2.09142      -2.33238             0       4.02982       7.29743             0       61.5073       16.8679             0       51.6033             0             0      0.179545   1.05204e-15      0.219371        102476        103188        217413   1.92753e-15
    0.0395395       288.162       288.272      0.291102       1.91426      -2.13841             0       3.68113       7.18091             0       63.1618       14.9475             0        48.963             0             0      0.179355   1.05522e-15      0.220194        102477        103193        217642   1.93336e-15
      0.04004       288.189       288.272      0.287345       1.74653      -1.94796             0       3.32909        7.0596             0       64.7956        13.021             0       46.3027             0             0      0.179185   1.05833e-15      0.220933        102478        103197        217881   1.93906e-15
    0.0405405       288.206       288.274        0.2796       1.68734      -1.79816             0       2.93848       6.88319             0       66.1903       11.0246             0       43.4139             0             0      0.179238   1.06064e-15      0.220702        102479        103202        218228   1.94329e-15
     0.041041       288.221       288.276      0.271659       1.64097      -1.65355             0       2.54694       6.70197             0        67.522       9.02296             0       40.5118             0             0      0.179297    1.0629e-15      0.220447        102480        103207        218578   1.94743e-15
    0.0415415        288.22       288.281      0.261511       1.73812      -1.56722             0       2.14484       6.46692             0       68.1479       6.96191             0       37.4622             0             0      0.179419   1.06466e-15      0.219919        102480        103212        218955   1.95065e-15
     0.042042       288.217       288.286      0.251324       1.84504      -1.48415             0       1.74356        6.2274             0       68.6937       4.90396             0       34.4037             0             0      0.179547    1.0664e-15       0.21936        102481        103217        219332   1.95384e-15
    0.0425425       288.201       288.294        0.2407       2.05854      -1.43665             0       1.35132       5.93913             0       68.3674       2.87977             0       31.2476             0             0      0.179754   1.06794e-15      0.218463        102482        103222        219718   1.95666e-15
     0.043043       288.184       288.302      0.229978        2.2751      -1.38905             0       0.95954       5.64742             0       68.0007      0.872711             0       28.0933             0             0      0.179971   1.06951e-15      0.217519        102482        103227        220107   1.95955e-15
    0.0435435       288.167       288.315      0.218199        2.5242      -1.34031             0       0.57256       5.31908             0       67.2052     -0.952325             0       24.9586             0             0      0.180301   1.07151e-15      0.216081        102483        103232        220535    1.9632e-15
     0.044044       288.153       288.329      0.206405       2.77198      -1.28824             0      0.187245       4.98754             0       66.3688       -2.7349             0       21.8401             0             0      0.180644   1.07368e-15      0.214591        102483        103237        220966   1.96719e-15
    0.0445445       288.168       288.346      0.194452       3.00594      -1.20164             0     -0.180821       4.62274             0       65.1084      -4.07744             0       18.8884             0             0       0.18111   1.07779e-15      0.212566        102484        103241        221428   1.97471e-15
     0.045045       288.186       288.363      0.182883       3.23781      -1.11141             0     -0.543824       4.25396             0       63.7626      -5.35027             0       15.9623             0             0      0.181589   1.08215e-15      0.210483        102485        103246        221895    1.9827e-15
    0.0455455       288.227       288.377      0.175203       3.44865     -0.984545             0     -0.855621       3.84481             0       61.5532      -5.91831             0       13.2952             0             0      0.182202   1.08915e-15      0.207815        102486        103250        222400   1.99552e-15