#           y             T         TMean   TPrime2Mean           U_x           U_y           U_z       UMean_x       UMean_y       UMean_z UPrime2Mea... UPrime2Mea... UPrime2Mea... UPrime2Mea... UPrime2Mea... UPrime2Mea...            O2           H2O          C3H8             p         pMean   pPrime2Mean           CO2
            0       287.585       288.379      0.211995       12.9908             0             0       13.3695             0             0       25.5542             0             0             0             0             0      0.212386   4.43803e-16     0.0765837        102378        103254        224146    8.1313e-16
  0.000500501       287.572       288.385      0.213298       13.2212       0.47586             0       13.3812    0.00384539             0        25.566    -0.0445287             0     0.0672662             0             0      0.212605   4.39437e-16     0.0756287        102378        103254        224149    8.0513e-16
     0.001001        287.56       288.391      0.214606       13.4522      0.951592             0       13.3929    0.00769466             0       25.5779    -0.0890462             0      0.134712             0             0      0.212826   4.35052e-16     0.0746696        102377        103254        224152   7.97096e-16
    0.0015015        287.52       288.402      0.218289       13.9956       1.36337             0       13.4186     0.0134784             0       25.6814     -0.127924             0      0.291966             0             0       0.21352   4.21269e-16     0.0716546        102376        103254        224135   7.71844e-16
     0.002002       287.481       288.414      0.221987       14.5393       1.77479             0       13.4443     0.0192616             0       25.7857     -0.166896             0      0.449671             0             0      0.214215   4.07441e-16       0.06863        102375        103254        224118   7.46507e-16
    0.0025025       287.414       288.424      0.229526       15.1709       2.09905             0       13.4797     0.0249316             0       26.0724     -0.229252             0      0.719869             0             0      0.215469   3.82216e-16     0.0631798        102374        103254        224062   7.00291e-16
     0.003003       287.346       288.434      0.237061       15.8022       2.42269             0       13.5153     0.0305803             0       26.3602     -0.292044             0      0.990888             0             0      0.216724   3.56953e-16     0.0577226        102373        103254        224006   6.54004e-16
    0.0035035       287.275        288.44      0.243838       16.3829       2.64542             0       13.5682     0.0327013             0       26.8461     -0.426885             0       1.39784             0             0      0.218245   3.25211e-16     0.0511095        102372        103253        223887   5.95848e-16
     0.004004       287.204       288.447      0.250519       16.9621       2.86724             0       13.6212     0.0347907             0       27.3326     -0.562447             0       1.80591             0             0      0.219762   2.93541e-16     0.0445125        102372        103253        223767   5.37821e-16
    0.0045045       287.155       288.454      0.245314       17.3708       2.97513             0       13.6812      0.032958             0       27.9087     -0.787317             0       2.35322             0             0      0.220821   2.70652e-16     0.0399088        102371        103252        223580   4.95885e-16
   0.00500501       287.106       288.461      0.240022        17.777       3.08195             0        13.741     0.0311234             0       28.4827      -1.01248             0       2.90149             0             0      0.221872   2.47925e-16     0.0353378        102371        103251        223393   4.54244e-16
   0.00550551        287.07        288.47      0.226163       17.9433       3.08429             0       13.7758     0.0290921             0       28.8492      -1.26612             0       3.54424             0             0      0.222178   2.41225e-16     0.0340068        102371        103250        223168    4.4197e-16
   0.00600601       287.035       288.478      0.212329       18.1068       3.08585             0         13.81     0.0271138             0       29.2082      -1.51873             0       4.18716             0             0      0.222478   2.34657e-16     0.0327054        102371        103250        222942   4.29936e-16
   0.00650651       287.015       288.487      0.200622       18.0453       3.02305             0       13.7852     0.0294946             0       28.9581      -1.68629             0       4.84375             0             0      0.222216   2.38886e-16      0.033842        102371        103249        222674   4.37684e-16
   0.00700701       286.995       288.495      0.188969       17.9822        2.9599             0       13.7594     0.0319603             0       28.6972      -1.85184             0       5.49968             0             0      0.221943   2.43292e-16     0.0350301        102372        103248        222406   4.45757e-16
   0.00750751       287.005       288.504      0.181121        17.806       2.87158             0       13.6629      0.040397             0       27.6708      -1.87547             0       6.10892             0             0      0.220835   2.60222e-16     0.0398481        102372        103247        222104   4.76774e-16
   0.00800801       287.016       288.513      0.173311       17.6295       2.78381             0       13.5656     0.0488862             0       26.6367      -1.89781             0       6.71746             0             0      0.219709   2.77415e-16      0.044742        102372        103246        221803   5.08275e-16
   0.00850851       287.069       288.523      0.167802       17.4443       2.72984             0       13.4188     0.0606087             0       25.1354       -1.8411             0       7.28299             0             0      0.217513   3.10838e-16     0.0542936        102372        103245        221491   5.69514e-16
   0.00900901       287.122       288.533      0.162317       17.2595       2.67707             0       13.2716     0.0723178             0       23.6327      -1.78466             0       7.84828             0             0      0.215305   3.44526e-16     0.0638935        102372        103244        221179   6.31236e-16
   0.00950951       287.202       288.545      0.158162       17.0939       2.68956             0       13.1037     0.0833032             0       22.0589      -1.74286             0       8.40039             0             0       0.21249    3.9261e-16     0.0761294        102372        103243        220870   7.19334e-16
      0.01001       287.283       288.557      0.154037       16.9292       2.70321             0       12.9356     0.0942678             0        20.486      -1.70155             0       8.95211             0             0      0.209678    4.4082e-16     0.0883548        102372        103242        220560   8.07665e-16
    0.0105105       287.365        288.57      0.151367       16.8056       2.77398             0       12.7541      0.104218             0       18.9633      -1.68403             0       9.48479             0             0      0.206986   4.95258e-16       0.10006        102371        103242        220257   9.07405e-16
     0.011011       287.447       288.582      0.148788       16.6807       2.84614             0        12.572      0.114208             0       17.4401      -1.66577             0       10.0162             0             0      0.204311   5.49413e-16      0.111689        102371        103241        219953   1.00663e-15
    0.0115115       287.527       288.594      0.150232       16.5029       2.97973             0       12.3675      0.125951             0       15.8957      -1.61436             0       10.4894             0             0      0.202409    5.9095e-16      0.119962        102371        103240        219646   1.08273e-15
     0.012012       287.606       288.605      0.151748       16.3217       3.11397             0       12.1624      0.137731             0       14.3514      -1.56191             0       10.9608             0             0       0.20052   6.32117e-16      0.128172        102371        103239        219338   1.15816e-15
    0.0125125       287.689       288.614      0.156214       16.0026       3.27502             0       11.9361      0.150999             0       12.8113      -1.46726             0         11.36             0             0      0.199224   6.58257e-16      0.133808        102370        103238        219047   1.20605e-15
     0.013013       287.771       288.623      0.160638       15.6823       3.43535             0       11.7098      0.164214             0       11.2768       -1.3729             0       11.7577             0             0      0.197934   6.84267e-16      0.139418        102370        103237        218756   1.25371e-15
    0.0135135       287.848        288.63      0.163447       15.3224       3.56919             0       11.4814      0.175459             0       9.95123      -1.28935             0       12.1013             0             0      0.196873   7.05458e-16      0.144029        102369        103237        218466   1.29253e-15
     0.014014       287.925       288.637      0.166173       14.9654       3.70203             0       11.2531      0.186655             0       8.63673      -1.20624             0       12.4424             0             0      0.195803   7.26845e-16      0.148681        102368        103236        218176   1.33172e-15
    0.0145145       288.004       288.643      0.166028       14.7074       3.80065             0       11.0329      0.196136             0       7.70723      -1.13858             0       12.6946             0             0      0.194414   7.55041e-16      0.154721        102368        103236        217890   1.38338e-15
     0.015015       288.083       288.649      0.165826       14.4539       3.89982             0       10.8125      0.205755             0        6.7908      -1.07002             0       12.9409             0             0      0.192999   7.83605e-16      0.160873        102367        103235        217604   1.43571e-15
    0.0155155       288.182       288.654      0.163769       14.3444       4.01687             0       10.5881      0.219853             0       6.29655     -0.972138             0       12.9989             0             0       0.19075   8.24054e-16      0.170652        102367        103235        217338   1.50982e-15
     0.016016       288.281        288.66      0.161718       14.2377       4.13489             0       10.3634      0.234198             0       5.81807     -0.874599             0       13.0497             0             0       0.18848    8.6446e-16      0.180522        102366        103235        217072   1.58385e-15
    0.0165165       288.387       288.664      0.159837       14.2195       4.28217             0       10.1281      0.256053             0       5.81649     -0.787333             0       12.8837             0             0      0.185586   9.03572e-16      0.193103        102365        103235        216819   1.65551e-15
     0.017017       288.492       288.668      0.158012       14.2001       4.42738             0       9.89271      0.278011             0       5.83414     -0.704792             0       12.7134             0             0      0.182705   9.42206e-16      0.205631        102364        103235        216566    1.7263e-15
    0.0175175       288.566       288.669      0.157769       14.1501       4.51407             0       9.65824      0.302908             0       6.39787     -0.756519             0       12.4193             0             0      0.180166   9.67253e-16      0.216669        102364        103235        216315   1.77219e-15
     0.018018       288.638       288.671      0.157605       14.0875       4.59916             0       9.42412      0.327735             0       6.97937     -0.815212             0       12.1237             0             0      0.177664   9.91818e-16      0.227547        102363        103235        216065    1.8172e-15
    0.0185185       288.655       288.672      0.159566       13.6881       4.64165             0       9.19948      0.350695             0       8.03676      -1.06044             0       11.7884             0             0       0.17615    1.0035e-15      0.234129        102362        103235        215829    1.8386e-15
     0.019019        288.67       288.672      0.161613       13.2683       4.68597             0       8.97524       0.37356             0       9.10514      -1.30997             0       11.4521             0             0      0.174657   1.01493e-15      0.240622        102361        103235        215594   1.85954e-15
    0.0195195        288.64       288.672      0.165844       12.3308       4.77659             0       8.76124      0.394051             0       10.4515      -1.66833             0       11.0886             0             0      0.173675   1.01998e-15      0.244893        102361        103236        215384    1.8688e-15
      0.02002       288.608       288.672      0.170166       11.3887       4.86538             0       8.54753      0.414533             0       11.8005      -2.02486             0        10.724             0             0      0.172713   1.02481e-15      0.249073        102360        103236        215174   1.87764e-15
    0.0205205        288.55       288.673      0.176652       10.3382       4.91047             0       8.34098      0.434768             0       13.2122      -2.33766             0       10.3313             0             0      0.172252   1.02418e-15      0.251078        102360        103236        214963   1.87649e-15
     0.021021       288.492       288.674      0.183261       9.30428       4.95057             0       8.13497      0.455213             0       14.6149      -2.64399             0       9.93715             0             0      0.171822   1.02326e-15      0.252947        102361        103236        214753    1.8748e-15
    0.0215215       288.412       288.675      0.192673       8.64851        4.8771             0       7.94116      0.480416             0       15.8119      -2.80274             0       9.50901             0             0      0.172098   1.01564e-15      0.251748        102362        103236        214561   1.86085e-15
     0.022022       288.331       288.677      0.202223       8.01062       4.80206             0       7.74861      0.505573             0       16.9876      -2.95064             0       9.08111             0             0      0.172439   1.00745e-15      0.250264        102363        103237        214371   1.84583e-15
    0.0225225       288.212       288.682      0.214787       7.76131       4.69298             0       7.58345      0.529721             0       17.7011       -2.8626             0       8.65817             0             0      0.174205   9.86691e-16      0.242588        102365        103237        214223    1.8078e-15
     0.023023       288.093       288.686      0.227305       7.52173       4.58588             0       7.41939      0.554084             0       18.3996      -2.76783             0       8.23823             0             0      0.176024   9.65605e-16       0.23468        102366        103237        214077   1.76917e-15
    0.0235235       287.972        288.69      0.238861       7.48379       4.51982             0       7.27803      0.582917             0       18.7874      -2.53337             0       7.88046             0             0      0.178949   9.37686e-16      0.221963        102367        103237        213985   1.71802e-15
     0.024024       287.855       288.693      0.250253       7.45116       4.45691             0       7.13738      0.612056             0       19.1689      -2.29473             0       7.52621             0             0      0.181833   9.10346e-16      0.209421        102369        103237        213896   1.66792e-15
    0.0245245       287.797       288.696      0.258372       7.52361       4.45652             0       7.01104      0.647257             0       19.4258      -1.97303             0       7.24166             0             0      0.183915   8.94484e-16       0.20037        102370        103237        213870   1.63886e-15
     0.025025       287.742       288.699      0.266412       7.60061       4.45881             0       6.88513      0.682571             0       19.6838       -1.6472             0       6.96053             0             0      0.185947   8.79268e-16      0.191534        102371        103237        213849   1.61098e-15
    0.0255255        287.73       288.706      0.272955        7.7639       4.51195             0       6.76737      0.720022             0       19.9633      -1.24278             0       6.74451             0             0      0.187043   8.76299e-16      0.186772        102372        103237        213908   1.60554e-15
     0.026026       287.718       288.713      0.279352       7.93068       4.56754             0       6.64951      0.758033             0       20.2618     -0.845693             0       6.53442             0             0       0.18813   8.73748e-16      0.182044        102372        103237        213973   1.60087e-15
    0.0265265       287.713        288.72      0.283106       8.16111       4.66774             0       6.52973      0.806261             0       20.9083     -0.582284             0       6.43229             0             0      0.189073   8.78818e-16      0.177943        102373        103237        214135   1.61016e-15
     0.027027       287.709       288.727      0.286559       8.39154       4.76987             0       6.41058      0.854685             0       21.5678     -0.330297             0       6.33877             0             0       0.19001   8.84939e-16      0.173871        102373        103236        214303   1.62137e-15
    0.0275275       287.708       288.729      0.284721       8.62199       4.90574             0       6.30225      0.906562             0       22.4535     -0.278415             0       6.39599             0             0      0.190827   9.09492e-16      0.170318        102373        103236        214565   1.66636e-15
     0.028028       287.708       288.731      0.282539       8.84832       5.04278             0       6.19622      0.957937             0       23.3171     -0.231461             0       6.46059             0             0      0.191628   9.35294e-16      0.166833        102373        103236        214833   1.71363e-15
    0.0285285        287.71       288.728      0.274542       9.00534       5.19959             0       6.12888       1.00085             0        23.809     -0.267564             0       6.64968             0             0      0.192167   9.82171e-16      0.164491        102373        103235        215189   1.79952e-15
     0.029029       287.713       288.724      0.266392       9.15562       5.35713             0       6.06498       1.04277             0       24.2482     -0.300676             0        6.8436             0             0      0.192684   1.02878e-15      0.162245        102373        103234        215551   1.88491e-15
    0.0295295       287.718       288.717       0.25575        9.1965       5.52652             0       6.05708       1.06839             0       23.8329     -0.285214             0       7.11594             0             0       0.19284   1.07097e-15      0.161566        102373        103234        216009   1.96221e-15
      0.03003       287.723       288.709      0.245118        9.2297       5.69649             0       6.05253       1.09296             0       23.3639     -0.264444             0       7.39047             0             0       0.19297   1.11268e-15      0.161001        102372        103233        216470   2.03863e-15
    0.0305305       287.734       288.703      0.234622       9.14254       5.87543             0        6.1005       1.10086             0       22.0527     -0.160516             0       7.69931             0             0      0.192687    1.1469e-15      0.162233        102372        103232        217000   2.10133e-15
     0.031031       287.746       288.697      0.224115       9.04748       6.05489             0       6.15082       1.10795             0       20.7136    -0.0548521             0       8.00874             0             0      0.192387   1.18153e-15      0.163535        102371        103231        217533   2.16479e-15
    0.0315315       287.764       288.693      0.213426       8.83268       6.24218             0       6.23679       1.10265             0       18.9519     0.0770774             0       8.32691             0             0      0.191843   1.22239e-15      0.165901        102370        103230        218116   2.23965e-15
     0.032032       287.783       288.689      0.202729       8.61024       6.42935             0       6.32399       1.09687             0       17.1928      0.205225             0       8.64471             0             0      0.191291   1.26328e-15      0.168301        102369        103230        218701   2.31456e-15
    0.0325325       287.806       288.687      0.191912       8.27613       6.61475             0       6.42907        1.0841             0       15.4703      0.278062             0       8.95703             0             0      0.190624   1.30454e-15      0.171201        102369        103229        219307   2.39016e-15
     0.033033       287.829       288.685      0.181167       7.93531       6.79935             0        6.5346       1.07112             0       13.7679      0.344053             0       9.26809             0             0      0.189951   1.34556e-15      0.174126        102368        103229        219910   2.46531e-15
    0.0335335       287.855       288.684      0.171439       7.49947       6.97255             0       6.64646        1.0552             0       12.3501      0.313155             0       9.56134             0             0        0.1892   1.38316e-15      0.177393        102367        103228        220479    2.5342e-15
     0.034034       287.881       288.683      0.161842       7.05817       7.14428             0       6.75849       1.03907             0       10.9554      0.275419             0        9.8521             0             0      0.188452   1.42041e-15      0.180645        102366        103228        221045   2.60246e-15
    0.0345345       287.902       288.683      0.154031       6.54203         7.296             0       6.87273        1.0202             0        9.8783      0.143953             0       10.1088             0             0      0.187748   1.45295e-15      0.183702        102366        103227        221582   2.66208e-15
     0.035035       287.923       288.683      0.146335        6.0219       7.44553             0       6.98766       1.00121             0       8.81751    0.00601356             0        10.361             0             0      0.187067   1.48449e-15      0.186665        102365        103227        222116   2.71986e-15
    0.0355355       287.933       288.683      0.140173       5.44868       7.56606             0       7.11171      0.980501             0       7.97405     -0.217921             0        10.554             0             0      0.186676   1.50272e-15      0.188367        102365        103227        222605   2.75326e-15
     0.036036       287.942       288.682      0.134088       4.87325       7.68293             0       7.23681       0.95978             0       7.14767     -0.446919             0       10.7384             0             0      0.186316   1.51973e-15      0.189932        102365        103227        223086   2.78442e-15
    0.0365365       287.937       288.683      0.128995       4.26935       7.75253             0       7.37535      0.938873             0       6.54153      -0.74118             0       10.8116             0             0      0.186365   1.52104e-15      0.189717        102366        103227        223473   2.78683e-15
     0.037037       287.932       288.683      0.123951       3.66543       7.81655             0       7.51407      0.917792             0       5.96408      -1.03706             0       10.8724             0             0      0.186445   1.52138e-15       0.18937        102366        103227        223854   2.78745e-15
    0.0375375       287.916       288.684      0.119534       3.06124       7.81084             0       7.65486      0.894551             0       5.74561      -1.35314             0       10.7789             0             0      0.186904   1.50946e-15      0.187373        102367        103228        224159    2.7656e-15
     0.038038         287.9       288.685      0.115145       2.45942       7.79784             0         7.795      0.871171             0       5.56078      -1.66715             0       10.6726             0             0      0.187393   1.49661e-15      0.185246        102368        103228        224458   2.74207e-15
    0.0385385       287.875       288.686      0.111086       1.88632       7.69635             0       7.92725      0.846089             0       5.78499      -1.95611             0       10.4094             0             0      0.188243   1.47255e-15      0.181554        102370        103229        224685   2.69798e-15
     0.039039        287.85       288.688      0.107035       1.31666       7.58714             0       8.05848       0.82092             0       6.04229      -2.23945             0       10.1335             0             0      0.189098   1.44827e-15      0.177836        102371        103230        224905    2.6535e-15
    0.0395395       287.826       288.689      0.103087      0.787654       7.38671             0        8.1776      0.794721             0       6.69055      -2.45636             0       9.70802             0             0      0.190022    1.4215e-15      0.173817        102373        103231        225040   2.60445e-15
      0.04004       287.803       288.691     0.0991488      0.261597       7.18107             0       8.29534      0.768457             0        7.3689      -2.66396             0       9.27221             0             0       0.19093   1.39519e-15      0.169867        102376        103232        225171   2.55624e-15
    0.0405405       287.793       288.691     0.0953314     -0.230581       6.91548             0       8.39709      0.741437             0       8.39317      -2.76457             0       8.71788             0             0      0.191656   1.37422e-15      0.166714        102378        103233        225260   2.51783e-15
     0.041041       287.784       288.691     0.0915219     -0.716521       6.64474             0       8.49664      0.714347             0       9.43374      -2.85425             0       8.15661             0             0      0.192368   1.35367e-15      0.163619        102380        103234        225348   2.48018e-15
    0.0415415       287.794       288.689     0.0878018      -1.13262       6.31626             0       8.57162      0.686479             0       10.6569      -2.82166             0       7.51771             0             0      0.192929   1.33781e-15      0.161179        102383        103236        225413   2.45112e-15
     0.042042       287.805       288.686     0.0841192      -1.53968       5.98099             0       8.64319      0.658344             0       11.8727      -2.78061             0       6.87656             0             0      0.193495   1.32199e-15      0.158719        102385        103238        225475   2.42213e-15
    0.0425425        287.82       288.682     0.0808468      -1.84807       5.57167             0        8.6775      0.627288             0        13.008      -2.64727             0       6.21092             0             0      0.194113   1.30662e-15      0.156032        102388        103239        225505   2.39397e-15
     0.043043       287.835       288.678     0.0776539      -2.14924       5.16084             0        8.7084      0.595916             0       14.1172      -2.51003             0       5.54853             0             0      0.194728   1.29153e-15      0.153358        102390        103240        225536   2.36633e-15
    0.0435435        287.84       288.673     0.0753071      -2.37362       4.73403             0       8.70316      0.561182             0       14.9497      -2.33129             0       4.92075             0             0      0.195313   1.27951e-15      0.150815        102392        103241        225590   2.34431e-15
     0.044044       287.844       288.668     0.0730199      -2.58825       4.31091             0       8.69552       0.52597             0       15.7533      -2.15425             0       4.29793             0             0      0.195861   1.26845e-15      0.148428        102394        103243        225647   2.32403e-15
    0.0445445       287.841       288.664     0.0713513      -2.70183       3.92601             0       8.66312      0.485806             0       16.2563      -1.99487             0       3.72666             0             0      0.196038    1.2673e-15      0.147662        102396        103244        225738   2.32193e-15
     0.045045        287.84        288.66       0.06969      -2.81249       3.54428             0       8.62827      0.444953             0       16.7411      -1.83915             0       3.15987             0             0      0.196122   1.26824e-15      0.147296        102398        103245        225826   2.32364e-15
    0.0455455       287.846       288.658      0.068103      -2.89376       3.19466             0       8.56868       0.39713             0       17.0418      -1.72053             0       2.63843             0             0      0.195275   1.29019e-15      0.150977        102399        103246        225893   2.36387e-15