#           y             T         TMean   TPrime2Mean           U_x           U_y           U_z       UMean_x       UMean_y       UMean_z UPrime2Mea... UPrime2Mea... UPrime2Mea... UPrime2Mea... UPrime2Mea... UPrime2Mea...            O2           H2O          C3H8             p         pMean   pPrime2Mean           CO2
  1.11022e-19       287.713       288.231      0.175362       26.3232   3.40032e-17             0       15.4325   9.96952e-18             0       24.5481   1.44786e-17             0   2.34335e-17             0             0      0.227983   5.35705e-17    0.00877086        102384        103258        222713   9.81511e-17
  0.000500501       287.743        288.23      0.181173       26.3445       0.15329             0        15.443     0.0449437             0        24.582      0.065271             0      0.105641             0             0      0.226479    7.4135e-17     0.0153088        102384        103257        222682   1.35829e-16
     0.001001       287.773        288.23      0.187001       26.3659      0.306583             0       15.4535      0.089887             0        24.616       0.13052             0      0.211533             0             0      0.224969   9.47609e-17     0.0218745        102384        103257        222651    1.7362e-16
    0.0015015       287.861        288.23      0.201268       26.4282      0.461424             0       15.4769      0.134657             0         24.73      0.184691             0      0.442688             0             0       0.22026   1.46035e-16     0.0423494        102384        103257        222553   2.67564e-16
     0.002002        287.95       288.231      0.215537       26.4908      0.616278             0       15.5002      0.179425             0       24.8439      0.238852             0      0.674307             0             0      0.215542    1.9733e-16     0.0628616        102383        103257        222456   3.61545e-16
    0.0025025       288.052       288.237      0.230368       26.6033      0.774481             0        15.507      0.223879             0        24.904      0.290164             0       1.02126             0             0      0.208687   2.53604e-16     0.0926634        102382        103256        222325    4.6465e-16
     0.003003       288.154       288.243      0.245173       26.7154      0.932763             0       15.5136      0.268334             0       24.9624      0.341565             0       1.36873             0             0      0.201838   3.09795e-16      0.122443        102381        103256        222194   5.67603e-16
    0.0035035       288.184       288.257      0.255481       26.7675       1.10425             0       15.4793       0.31283             0       24.7139      0.407551             0       1.80027             0             0       0.19583   3.52296e-16      0.148566        102380        103255        222020   6.45472e-16
     0.004004       288.214       288.271      0.265762       26.8175       1.27561             0       15.4447      0.357339             0       24.4631      0.473804             0       2.23228             0             0       0.18984   3.94703e-16      0.174607        102378        103255        221845    7.2317e-16
    0.0045045       288.187       288.289      0.272786        26.605       1.43209             0       15.3732      0.403356             0       23.9254      0.573099             0       2.72367             0             0       0.18615   4.25511e-16      0.190652        102376        103254        221624   7.79616e-16
   0.00500501       288.159       288.307      0.279791         26.39       1.58742             0       15.3015      0.449366             0        23.388      0.672478             0       3.21559             0             0      0.182477   4.56277e-16      0.206622        102373        103254        221403   8.35985e-16
   0.00550551       288.141       288.323      0.284961       25.9358       1.62852             0       15.2121      0.494735             0       22.8749      0.780287             0       3.75968             0             0      0.180503   4.82844e-16      0.215204        102371        103253        221179    8.8466e-16
   0.00600601       288.122       288.338        0.2901       25.4809       1.66799             0       15.1227      0.540059             0       22.3637      0.887165             0       4.30459             0             0      0.178547   5.09423e-16       0.22371        102368        103253        220954   9.33359e-16
   0.00650651       288.104       288.352      0.292778       24.9764       1.57236             0       15.0337      0.581715             0       22.0087      0.917476             0       4.91623             0             0      0.178027   5.37075e-16      0.225968        102365        103252        220709   9.84021e-16
   0.00700701       288.086       288.366      0.295416       24.4725       1.47648             0       14.9448       0.62331             0       21.6546      0.946098             0       5.52919             0             0      0.177525   5.64705e-16      0.228153        102363        103251        220463   1.03465e-15
   0.00750751       288.057       288.375       0.29534       24.0095       1.36347             0       14.8657      0.660559             0       21.3661      0.855734             0       6.23499             0             0      0.178194   5.90864e-16      0.225244        102361        103251        220203   1.08257e-15
   0.00800801       288.029       288.385      0.295218       23.5503       1.25352             0       14.7867      0.697823             0       21.0776      0.764896             0       6.94293             0             0      0.178873   6.16876e-16      0.222292        102358        103250        219944   1.13023e-15
   0.00850851       287.996       288.388      0.292351       23.3287       1.33178             0       14.7206      0.736029             0       20.7936      0.644935             0       7.78306             0             0      0.180155   6.33779e-16      0.216718        102357        103249        219714    1.1612e-15
   0.00900901       287.963       288.391      0.289421       23.1146       1.41611             0       14.6545      0.774394             0       20.5087      0.527994             0       8.62509             0             0      0.181438   6.50541e-16      0.211139        102355        103248        219485   1.19191e-15
   0.00950951       287.934       288.391      0.283111       23.3085       1.83135             0       14.5852      0.821397             0        20.176      0.575836             0        9.5709             0             0      0.182775   6.59636e-16      0.205325        102353        103247        219287   1.20858e-15
      0.01001       287.905       288.391      0.276771       23.5051       2.25111             0       14.5153      0.868658             0       19.8413      0.629616             0        10.517             0             0      0.184106   6.68686e-16      0.199538        102352        103246        219088   1.22516e-15
    0.0105105       287.885       288.394      0.269013       23.8325       2.89229             0       14.4116      0.928542             0       19.4127        0.9744             0        11.476             0             0      0.185135   6.75573e-16      0.195065        102349        103245        218877   1.23778e-15
     0.011011       287.865       288.398      0.261287       24.1574       3.53535             0       14.3067      0.988587             0       18.9827        1.3245             0       12.4348             0             0      0.186161   6.82507e-16      0.190606        102346        103244        218665   1.25048e-15
    0.0115115       287.848       288.406      0.255006       24.3666       4.26147             0       14.1454       1.05581             0       18.4916       1.91082             0       13.3831             0             0       0.18704   6.91521e-16      0.186782        102342        103243        218442     1.267e-15
     0.012012        287.83       288.413      0.248749       24.5735       4.98905             0       13.9823       1.12306             0       18.0001       2.50063             0       14.3305             0             0      0.187922    7.0068e-16      0.182947        102337        103242        218219   1.28378e-15
    0.0125125       287.809       288.423      0.243438       24.6866       5.77608             0       13.7469       1.19122             0       17.4944       3.23257             0       15.2451             0             0      0.188909   7.15755e-16      0.178658        102332        103240        217982    1.3114e-15
     0.013013       287.788       288.433      0.238164       24.7973       6.56389             0       13.5095       1.25925             0       16.9889        3.9657             0       16.1567             0             0      0.189897   7.30983e-16       0.17436        102326        103239        217745    1.3393e-15
    0.0135135       287.764       288.443      0.234268       24.8172       7.38052             0       13.1946       1.32258             0        16.494       4.74348             0       16.9573             0             0       0.19096   7.51908e-16      0.169737        102319        103238        217520   1.37764e-15
     0.014014        287.74       288.453      0.230439       24.8343       8.19629             0       12.8782       1.38546             0       16.0007       5.51715             0       17.7542             0             0      0.192024   7.72919e-16      0.165111        102312        103236        217295   1.41613e-15
    0.0145145       287.714       288.461      0.228935       24.7526       8.98223             0       12.5064       1.43281             0       15.5622       6.14804             0       18.4226             0             0      0.193107   7.96934e-16      0.160403        102303        103235        217112   1.46013e-15
     0.015015       287.688       288.469      0.227477       24.6678       9.76531             0       12.1341       1.47943             0       15.1279       6.77073             0       19.0881             0             0      0.194189   8.20892e-16      0.155701        102294        103234        216930   1.50403e-15
    0.0155155       287.661       288.473      0.227485       24.4831       10.4562             0       11.7425       1.50243             0       14.8304       7.12831             0       19.6597             0             0      0.195224   8.42992e-16      0.151201        102283        103233        216772   1.54452e-15
     0.016016       287.634       288.478      0.227474       24.2951        11.143             0       11.3512       1.52477             0       14.5402       7.47892             0       20.2292             0             0      0.196253   8.64897e-16      0.146727        102272        103233        216615   1.58465e-15
    0.0165165       287.612       288.479      0.226873       24.0075       11.7068             0       10.9739       1.52682             0       14.4706       7.61887             0       20.7339             0             0      0.197102   8.80896e-16      0.143033        102262        103232        216495   1.61397e-15
     0.017017        287.59       288.481      0.226178       23.7163       12.2661             0       10.5978       1.52855             0       14.4084       7.75508             0       21.2373             0             0      0.197946   8.96805e-16      0.139364        102251        103231        216375   1.64311e-15
    0.0175175       287.574       288.479      0.222792       23.3235       12.6967             0       10.2593        1.5212             0        14.558       7.78512             0       21.6998             0             0       0.19863   9.10167e-16       0.13639        102240        103231        216263    1.6676e-15
     0.018018       287.558       288.476      0.219368       22.9267       13.1224             0       9.92235       1.51382             0       14.7121       7.81282             0       22.1624             0             0      0.199315   9.23623e-16      0.133415        102229        103230        216151   1.69225e-15
    0.0185185       287.546       288.469      0.214899       22.4214       13.4176             0        9.6275       1.50549             0        14.988       7.77801             0       22.6297             0             0      0.200002   9.39603e-16      0.130426        102219        103230        216064   1.72153e-15
     0.019019       287.534       288.462      0.210533       21.9116       13.7081             0       9.33402       1.49715             0       15.2652        7.7404             0       23.0999             0             0      0.200692    9.5564e-16      0.127428        102208        103230        215980   1.75091e-15
    0.0195195       287.522       288.456      0.208758        21.286       13.8823             0       9.07513       1.48835             0       15.5776       7.63202             0       23.6462             0             0      0.201433   9.73103e-16      0.124206        102199        103229        215937   1.78291e-15
      0.02002       287.511       288.451      0.207018       20.6558        14.053             0       8.81748       1.47943             0       15.8913        7.5196             0       24.1973             0             0       0.20217   9.90413e-16         0.121        102190        103229        215894   1.81462e-15
    0.0205205       287.504       288.453       0.20614       19.9137       14.1402             0       8.58953        1.4674             0        16.239       7.31054             0       24.8642             0             0      0.202815   1.00404e-15      0.118194        102183        103229        215864   1.83959e-15
     0.021021       287.498       288.456      0.205208       19.1674       14.2247             0        8.3627       1.45521             0       16.5893       7.09622             0       25.5354             0             0      0.203455   1.01742e-15      0.115412        102175        103228        215833   1.86411e-15
    0.0215215       287.503       288.467      0.203073       18.3216       14.2493             0       8.16159       1.43954             0       17.0003       6.76173             0       26.3071             0             0      0.203964   1.02511e-15        0.1132        102170        103228        215820   1.87819e-15
     0.022022       287.509       288.477      0.200984        17.472       14.2719             0       7.96119       1.42369             0        17.413       6.42187             0       27.0814             0             0       0.20447   1.03258e-15         0.111        102165        103228        215807   1.89189e-15
    0.0225225        287.53       288.491      0.199924       16.5375       14.2488             0       7.77646       1.40399             0       17.8621       5.96511             0       27.9115             0             0      0.204915    1.0355e-15      0.109066        102161        103227        215787   1.89723e-15
     0.023023        287.55       288.504      0.198931       15.5996       14.2241             0       7.59216       1.38395             0       18.3094       5.50356             0       28.7424             0             0      0.205352   1.03831e-15      0.107163        102157        103227        215767   1.90237e-15
    0.0235235        287.57       288.516      0.199331       14.5902       14.1663             0       7.41662       1.35677             0       18.7178       4.94263             0        29.589             0             0      0.205637   1.03876e-15      0.105927        102155        103226        215755   1.90321e-15
     0.024024       287.591       288.528      0.199821       13.5778       14.1073             0       7.24181       1.32904             0       19.1191       4.37783             0       30.4356             0             0      0.205913   1.03915e-15      0.104725        102152        103226        215744   1.90393e-15
    0.0245245       287.609       288.538      0.202115       12.5038       14.0238             0       7.08142       1.29036             0        19.378       3.73609             0       31.2806             0             0      0.206036   1.03823e-15      0.104191        102151        103226        215756   1.90223e-15
     0.025025       287.628       288.549      0.204425       11.4273       13.9395             0       6.92224       1.25112             0       19.6273       3.09115             0       32.1252             0             0      0.206163   1.03726e-15      0.103639        102150        103225        215769   1.90045e-15
    0.0255255       287.654        288.56      0.207066       10.3028       13.8416             0       6.78625       1.20133             0       19.6953       2.38547             0       32.9633             0             0      0.206365   1.03548e-15      0.102761        102150        103225        215788    1.8972e-15
     0.026026       287.679       288.571       0.20955       9.17708       13.7429             0       6.65163       1.15115             0       19.7572       1.67654             0       33.8006             0             0      0.206577   1.03373e-15      0.101839        102150        103225        215806   1.89399e-15
    0.0265265       287.707        288.58      0.209197       8.02839         13.63             0       6.54189       1.09397             0       19.7057      0.908347             0        34.622             0             0      0.206968   1.03234e-15      0.100138        102151        103224        215812   1.89143e-15
     0.027027       287.734        288.59      0.208668       6.87879       13.5167             0       6.43338       1.03658             0       19.6536      0.136265             0       35.4419             0             0      0.207359   1.03102e-15     0.0984382        102152        103224        215816   1.88903e-15
    0.0275275       287.752       288.598      0.205075       5.71326       13.3975             0       6.34631      0.975433             0       19.5913     -0.703991             0       36.2379             0             0      0.207741   1.03114e-15     0.0967767        102154        103224        215801   1.88924e-15
     0.028028        287.77       288.606      0.201387       4.54618       13.2789             0       6.26035      0.914155             0       19.5309      -1.54757             0       37.0307             0             0      0.208113   1.03136e-15     0.0951591        102156        103223        215786   1.88965e-15
    0.0285285       287.777       288.609       0.19611       3.35315       13.1678             0       6.19308      0.850708             0       19.5031      -2.44711             0         37.77             0             0      0.208315   1.03335e-15     0.0942812        102159        103223        215764   1.89328e-15
     0.029029       287.783       288.612       0.19088       2.16139       13.0551             0        6.1269      0.787123             0       19.4741      -3.34682             0        38.502             0             0      0.208509   1.03537e-15     0.0934409        102162        103222        215744   1.89699e-15
    0.0295295       287.781       288.613       0.18642      0.990238       12.9156             0       6.07868      0.721297             0       19.4265      -4.24928             0       39.1137             0             0      0.208561   1.03805e-15      0.093213        102165        103222        215748    1.9019e-15
      0.03003       287.779       288.613      0.182053     -0.175488       12.7716             0       6.03123      0.655505             0       19.3734      -5.14781             0       39.7122             0             0        0.2086   1.04075e-15     0.0930452        102169        103222        215754   1.90684e-15
    0.0305305       287.767       288.612       0.17914      -1.25613       12.5584             0       5.99587       0.59024             0       19.2344       -5.9849             0       40.1024             0             0      0.208421   1.04366e-15     0.0938203        102173        103222        215785   1.91218e-15
     0.031031       287.754       288.611      0.176245      -2.33071       12.3425             0       5.96065      0.525421             0       19.0866       -6.8142             0       40.4739             0             0      0.208195    1.0466e-15     0.0948039        102178        103223        215818   1.91756e-15
    0.0315315       287.734       288.609      0.173637      -3.31372       12.0864             0       5.92764      0.467357             0       18.8077      -7.52574             0       40.5607             0             0      0.207244   1.04978e-15     0.0989411        102184        103223        215864    1.9234e-15
     0.032032       287.715       288.607      0.170986      -4.29367       11.8316             0        5.8948      0.410023             0       18.5226        -8.228             0       40.6261             0             0      0.206249   1.05285e-15      0.103264        102189        103223        215912   1.92902e-15
    0.0325325       287.701       288.605       0.16771      -5.22866       11.5957             0       5.86456      0.363373             0       18.1475      -8.79463             0       40.3797             0             0      0.204631   1.05413e-15      0.110301        102196        103224        215995   1.93136e-15
     0.033033       287.688       288.602      0.164371       -6.1597       11.3608             0       5.83537       0.31739             0       17.7758      -9.35374             0       40.1135             0             0      0.203003   1.05493e-15       0.11738        102202        103224        216080   1.93282e-15
    0.0335335        287.69       288.601      0.160138      -7.03482       11.1399             0       5.82108      0.280854             0       17.4522      -9.80647             0       39.5671             0             0      0.201238   1.04894e-15      0.125051        102210        103225        216189   1.92186e-15
     0.034034       287.694       288.599       0.15591      -7.89368       10.9126             0       5.80877      0.244738             0       17.1405      -10.2539             0       39.0038             0             0      0.199415   1.04173e-15      0.132979        102217        103226        216302   1.90864e-15
    0.0345345       287.729       288.598      0.151736      -8.52966        10.598             0       5.82363      0.214369             0       16.9918      -10.6287             0       38.2097             0             0      0.196779   1.01763e-15      0.144439        102225        103226        216460   1.86449e-15
     0.035035       287.766       288.596      0.147637      -9.14137       10.2714             0       5.84083      0.184331             0       16.8626      -11.0009             0       37.4025             0             0       0.19413   9.92974e-16      0.155956        102233        103227        216622   1.81931e-15
    0.0355355       287.821       288.595      0.144519      -9.43062       9.78489             0       5.88912      0.158677             0       16.9924      -11.3395             0       36.4212             0             0      0.191305   9.60851e-16      0.168239        102242        103229        216834   1.76046e-15
     0.036036       287.876       288.593      0.141497      -9.70593       9.29547             0       5.93932      0.133596             0       17.1521       -11.678             0        35.429             0             0      0.188559   9.29437e-16      0.180177        102250        103230        217047    1.7029e-15
    0.0365365       287.927       288.591      0.139723      -9.80163       8.76842             0       6.01418      0.115909             0       17.6956      -12.0156             0       34.2967             0             0      0.186833   9.07161e-16      0.187681        102257        103231        217271   1.66209e-15
     0.037037       287.978       288.589      0.138091      -9.89094       8.24664             0       6.09027     0.0988875             0       18.2754      -12.3522             0       33.1531             0             0      0.185179   8.85681e-16      0.194873        102264        103232        217497   1.62273e-15
    0.0375375       288.025       288.586      0.138234      -9.90014       7.79091             0        6.1818     0.0901895             0       19.3085      -12.6766             0       31.8688             0             0      0.184423   8.74162e-16      0.198163        102271        103233        217749   1.60163e-15
     0.038038       288.073       288.583      0.138623      -9.89455       7.33498             0       6.27408     0.0818744             0       20.3766      -12.9994             0       30.5768             0             0      0.183735   8.63544e-16      0.201152        102277        103235        218003   1.58217e-15
    0.0385385       288.114       288.577      0.141996      -9.70922       6.87667             0       6.37554     0.0782138             0       21.8697      -13.3039             0       29.1921             0             0      0.183887   8.63876e-16       0.20049        102283        103236        218281   1.58278e-15
     0.039039       288.155       288.571      0.145584      -9.50472       6.41406             0       6.47721     0.0747194             0       23.3904      -13.6061             0       27.8052             0             0      0.184143   8.65669e-16      0.199379        102289        103238        218559   1.58607e-15
    0.0395395       288.188       288.561      0.151697       -9.0736       5.90074             0       6.58147     0.0731881             0        25.238      -13.8802             0       26.3907             0             0      0.185618   8.84729e-16      0.192965        102294        103239        218843   1.62099e-15
      0.04004        288.22       288.552      0.157847      -8.63457       5.38641             0       6.68497     0.0717625             0       27.1004      -14.1481             0       24.9747             0             0      0.187145   9.04589e-16      0.186325        102299        103241        219131   1.65738e-15
    0.0405405       288.225        288.54      0.164426      -8.10464       4.86063             0       6.77977     0.0715526             0       29.1332      -14.3452             0       23.5423             0             0      0.189269    9.3365e-16       0.17709        102302        103242        219469   1.71062e-15
     0.041041       288.228       288.528      0.170928      -7.59254       4.34414             0       6.87239      0.071412             0       31.1638       -14.532             0        22.107             0             0      0.191326   9.62171e-16      0.168148        102306        103244        219809   1.76288e-15
    0.0415415       288.193       288.516      0.176563      -7.28007       3.93171             0       6.94063     0.0720477             0       33.1698      -14.6038             0       20.6383             0             0      0.192626   9.84644e-16      0.162495        102309        103246        220175   1.80405e-15
     0.042042       288.156       288.504      0.181955      -6.99863       3.53391             0       7.00615     0.0725729             0       35.1457      -14.6563             0       19.1647             0             0      0.193858   1.00776e-15      0.157139        102311        103247        220541   1.84641e-15
    0.0425425        288.09       288.495      0.184708      -7.05547       3.29561             0       7.04205     0.0718925             0       36.7925      -14.4979             0       17.6377             0             0      0.194344   1.03793e-15      0.155026        102313        103249        220917   1.90169e-15
     0.043043       288.024       288.487      0.187231      -7.11811        3.0604             0       7.07527      0.070714             0       38.3727       -14.308             0       16.1052             0             0      0.194774   1.06955e-15      0.153158        102315        103251        221299   1.95961e-15
    0.0435435       287.966       288.482      0.187323      -7.24242       2.85806             0       7.07999     0.0642417             0       39.2438      -13.7842             0       14.5145             0             0      0.194605   1.11647e-15      0.153891        102317        103252        221738   2.04557e-15
     0.044044        287.91       288.478      0.187441      -7.35339       2.65135             0       7.08044     0.0569001             0       40.0487      -13.2267             0       12.9247             0             0      0.194293   1.16735e-15      0.155248        102319        103254        222179   2.13879e-15
    0.0445445       287.886       288.475      0.187825      -7.32606       2.39948             0       7.03661     0.0405503             0       40.1662      -12.3207             0       11.3443             0             0      0.192492   1.25926e-15      0.163076        102321        103256        222637    2.3072e-15
     0.045045       287.863       288.472       0.18812      -7.30309       2.14991             0       6.98632     0.0240379             0       40.2622      -11.3875             0       9.77319             0             0      0.190633    1.3516e-15      0.171162        102322        103258        223096   2.47639e-15
    0.0455455       287.847       288.467       0.18752      -7.32416       1.92359             0       6.87065    0.00588131             0       40.1402      -10.1797             0        8.2964             0             0      0.188172   1.44824e-15       0.18186        102324        103259        223560   2.65344e-15