#           y             T         TMean   TPrime2Mean           U_x           U_y           U_z       UMean_x       UMean_y       UMean_z UPrime2Mea... UPrime2Mea... UPrime2Mea... UPrime2Mea... UPrime2Mea... UPrime2Mea...            O2           H2O          C3H8             p         pMean   pPrime2Mean           CO2
         0.03       1899.99       384.418        141630       75.0464      -12.0143             0       7.37895       1.27783             0       193.814       -1.4694             0       51.2554             0             0   1.38258e-09      0.092548     0.0499758        111685        103483   2.33208e+06      0.169565
    0.0301702       1899.99       384.263        141442       75.1507      -11.7753             0       7.35142       1.33178             0       194.187     -0.579093             0       51.2384             0             0   1.40233e-09     0.0926603     0.0488229        111687        103483   2.33226e+06      0.169771
    0.0303403       1899.99       384.108        141253       75.2551      -11.5363             0       7.32389       1.38573             0       194.561      0.311212             0       51.2214             0             0   1.42209e-09     0.0927727     0.0476699        111689        103484   2.33244e+06      0.169977
    0.0305105       1899.99       383.954        141064       75.3594      -11.2974             0       7.29636       1.43969             0       194.934       1.20152             0       51.2044             0             0   1.44184e-09      0.092885      0.046517        111691        103484   2.33262e+06      0.170183
    0.0306807       1899.99       383.799        140876       75.4637      -11.0584             0       7.26883       1.49364             0       195.307       2.09182             0       51.1874             0             0    1.4616e-09     0.0929973      0.045364        111694        103484    2.3328e+06      0.170388
    0.0308509       1899.99       383.645        140687       75.5681      -10.8194             0        7.2413       1.54759             0        195.68       2.98213             0       51.1704             0             0   1.48135e-09     0.0931096     0.0442111        111696        103485   2.33299e+06      0.170594
     0.031021       1899.99       383.488        140495       75.6677      -10.5851             0       7.21447       1.60151             0       195.947       3.84612             0       51.1448             0             0   1.49441e-09     0.0932246     0.0430311        111698        103485   2.33321e+06      0.170805
    0.0311912       1899.99       383.317        140279       75.7341      -10.3839             0       7.19255       1.65519             0       195.458       4.52343             0       51.0585             0             0   1.45992e-09     0.0933582     0.0416598        111700        103486    2.3337e+06       0.17105
    0.0313614       1899.99       383.146        140062       75.8005      -10.1828             0       7.17063       1.70887             0        194.97       5.20074             0       50.9721             0             0   1.42544e-09     0.0934918     0.0402884        111703        103486    2.3342e+06      0.171294
    0.0315315       1899.99       382.975        139846       75.8669      -9.98158             0        7.1487       1.76256             0       194.481       5.87805             0       50.8858             0             0   1.39095e-09     0.0936254     0.0389171        111706        103487   2.33469e+06      0.171539
    0.0317017       1899.98       382.803        139630       75.9333       -9.7804             0       7.12678       1.81624             0       193.992       6.55535             0       50.7994             0             0   1.35647e-09      0.093759     0.0375457        111708        103487   2.33519e+06      0.171784
    0.0318719       1899.98       382.632        139414       75.9998      -9.57921             0       7.10486       1.86992             0       193.503       7.23266             0       50.7131             0             0   1.32198e-09     0.0938926     0.0361743        111711        103488   2.33568e+06      0.172029
     0.032042       1899.98       382.456        139190       76.0491      -9.38079             0       7.08383       1.92327             0       192.807       7.88834             0       50.6059             0             0   1.28633e-09     0.0940263     0.0348025        111714        103488   2.33626e+06      0.172274
    0.0322122       1899.98       382.267        138943       76.0463      -9.19078             0       7.06549       1.97564             0       191.476        8.4781             0       50.4355             0             0   1.24711e-09     0.0941601     0.0334294        111717        103489   2.33707e+06      0.172519
    0.0323824       1899.98       382.077        138695       76.0435      -9.00078             0       7.04716         2.028             0       190.146       9.06785             0       50.2651             0             0   1.20789e-09     0.0942939     0.0320563        111721        103490   2.33788e+06      0.172764
    0.0325526       1899.98       381.888        138448       76.0408      -8.81077             0       7.02882       2.08036             0       188.815       9.65761             0       50.0947             0             0   1.16867e-09     0.0944276     0.0306831        111724        103490   2.33869e+06      0.173009
    0.0327227       1899.98       381.698        138201        76.038      -8.62076             0       7.01049       2.13272             0       187.485       10.2474             0       49.9243             0             0   1.12945e-09     0.0945614       0.02931        111727        103491   2.33951e+06      0.173254
    0.0328929       1899.99       381.509        137953       76.0352      -8.43075             0       6.99216       2.18508             0       186.154       10.8371             0       49.7539             0             0   1.09022e-09     0.0946952     0.0279369        111731        103492   2.34032e+06      0.173499
    0.0330631       1899.99        381.31        137690       76.0001      -8.24905             0        6.9747       2.23571             0       184.751       11.3626             0       49.5562             0             0   1.06515e-09     0.0948245     0.0266096        111734        103492   2.34122e+06      0.173736
    0.0332332       1899.99       381.097        137400       75.9102      -8.08148             0       6.95872       2.28339             0       183.224       11.7788             0       49.3121             0             0    1.0641e-09     0.0949462     0.0253602        111738        103493   2.34229e+06      0.173959
    0.0334034       1899.99       380.883        137109       75.8202      -7.91391             0       6.94275       2.33107             0       181.697        12.195             0        49.068             0             0   1.06306e-09      0.095068     0.0241107        111742        103494   2.34335e+06      0.174182
    0.0335736       1899.99        380.67        136818       75.7302      -7.74633             0       6.92678       2.37876             0        180.17       12.6113             0       48.8239             0             0   1.06201e-09     0.0951897     0.0228613        111746        103495   2.34441e+06      0.174405
    0.0337437       1899.99       380.457        136528       75.6402      -7.57876             0       6.91081       2.42644             0       178.643       13.0275             0       48.5798             0             0   1.06096e-09     0.0953115     0.0216119        111750        103495   2.34547e+06      0.174628
    0.0339139       1899.99       380.243        136237       75.5503      -7.41119             0       6.89484       2.47412             0       177.116       13.4437             0       48.3356             0             0   1.05991e-09     0.0954332     0.0203625        111754        103496   2.34653e+06      0.174851
    0.0340841       1899.99       380.018        135926       75.4199      -7.24307             0       6.87927       2.51892             0       175.552       13.8096             0       48.0501             0             0   1.10642e-09     0.0955353     0.0193149        111758        103497   2.34766e+06      0.175038
    0.0342543       1899.99       379.782        135594       75.2481      -7.07441             0       6.86412       2.56076             0       173.951       14.1241             0       47.7221             0             0   1.20161e-09     0.0956172      0.018474        111763        103498   2.34884e+06      0.175189
    0.0344244       1899.99       379.546        135261       75.0764      -6.90576             0       6.84898       2.60261             0       172.349       14.4385             0       47.3942             0             0    1.2968e-09     0.0956992     0.0176331        111767        103499   2.35002e+06      0.175339
    0.0345946       1899.99       379.309        134929       74.9046       -6.7371             0       6.83383       2.64445             0       170.748       14.7529             0       47.0662             0             0     1.392e-09     0.0957811     0.0167921        111771        103500   2.35121e+06      0.175489
    0.0347648          1900       379.073        134597       74.7328      -6.56844             0       6.81868        2.6863             0       169.146       15.0673             0       46.7383             0             0   1.48719e-09     0.0958631     0.0159512        111776        103501   2.35239e+06      0.175639
    0.0349349          1900       378.836        134264       74.5611      -6.39978             0       6.80354       2.72814             0       167.545       15.3817             0       46.4103             0             0   1.58238e-09      0.095945     0.0151103        111780        103502   2.35357e+06      0.175789
    0.0351051          1900        378.59        133912       74.3347      -6.23296             0       6.79034       2.76487             0       165.975       15.5916             0       46.0299             0             0   1.79701e-09     0.0959992     0.0145544        111785        103503   2.35481e+06      0.175888
    0.0352753          1900       378.336        133549       74.0745      -6.06728             0       6.77835       2.79843             0       164.425       15.7367             0       45.6169             0             0   2.08557e-09     0.0960361     0.0141749        111789        103504   2.35609e+06      0.175956
    0.0354454       1899.99       378.083        133185       73.8143       -5.9016             0       6.76636       2.83199             0       162.875       15.8818             0       45.2039             0             0   2.37413e-09     0.0960731     0.0137955        111794        103505   2.35736e+06      0.176024
    0.0356156       1899.99        377.83        132822       73.5541      -5.73592             0       6.75438       2.86555             0       161.325       16.0269             0        44.791             0             0    2.6627e-09     0.0961101     0.0134161        111799        103506   2.35863e+06      0.176092
    0.0357858       1899.99       377.576        132458       73.2939      -5.57024             0       6.74239       2.89911             0       159.776        16.172             0        44.378             0             0   2.95126e-09      0.096147     0.0130366        111804        103507    2.3599e+06      0.176159
     0.035956       1899.99       377.323        132094       73.0337      -5.40456             0        6.7304       2.93267             0       158.226       16.3171             0        43.965             0             0   3.23982e-09      0.096184     0.0126572        111808        103508   2.36117e+06      0.176227
    0.0361261       1899.99       377.052        131699       72.7382      -5.22734             0       6.72168       2.96011             0       156.716       16.3634             0        43.507             0             0   3.62052e-09     0.0962014     0.0124783        111814        103509   2.36244e+06      0.176259
    0.0362963       1899.99       376.776        131294       72.4302       -5.0461             0       6.71411       2.98542             0       155.221       16.3753             0       43.0333             0             0    4.0334e-09      0.096212     0.0123695        111819        103511    2.3637e+06      0.176278
    0.0364665       1899.99         376.5        130888       72.1223      -4.86486             0       6.70653       3.01072             0       153.726       16.3872             0       42.5595             0             0   4.44627e-09     0.0962226     0.0122607        111824        103512   2.36496e+06      0.176298
    0.0366366       1899.99       376.224        130482       71.8143      -4.68362             0       6.69896       3.03603             0       152.231       16.3991             0       42.0858             0             0   4.85914e-09     0.0962332     0.0121519        111829        103513   2.36622e+06      0.176317
    0.0368068       1899.99       375.947        130076       71.5064      -4.50238             0       6.69138       3.06134             0       150.735        16.411             0        41.612             0             0   5.27202e-09     0.0962438     0.0120431        111834        103514   2.36748e+06      0.176337
     0.036977       1899.99       375.671        129671       71.1985      -4.32114             0       6.68381       3.08664             0        149.24       16.4228             0       41.1382             0             0   5.68489e-09     0.0962544     0.0119343        111840        103515   2.36874e+06      0.176356
    0.0371471       1899.99       375.341        129167       70.8511      -4.14258             0       6.68089       3.10259             0       147.793       16.3192             0       40.6122             0             0   5.67712e-09     0.0962508     0.0119704        111845        103517   2.37002e+06      0.176349
    0.0373173       1899.99       375.004        128648       70.4975      -3.96445             0        6.6787       3.11708             0       146.354       16.1975             0        40.078             0             0   5.60353e-09     0.0962451     0.0120291        111851        103518   2.37131e+06      0.176339
    0.0374875       1899.99       374.666        128129        70.144      -3.78631             0       6.67651       3.13157             0       144.914       16.0758             0       39.5438             0             0   5.52994e-09     0.0962394     0.0120878        111857        103519   2.37259e+06      0.176328
    0.0376577       1899.99       374.328        127610       69.7904      -3.60817             0       6.67432       3.14606             0       143.475       15.9541             0       39.0096             0             0   5.45636e-09     0.0962336     0.0121465        111862        103521   2.37388e+06      0.176318
    0.0378278       1899.99        373.99        127091       69.4369      -3.43003             0       6.67213       3.16055             0       142.035       15.8323             0       38.4754             0             0   5.38277e-09     0.0962279     0.0122052        111868        103522   2.37517e+06      0.176307
     0.037998       1899.99       373.653        126572       69.0833      -3.25189             0       6.66994       3.17504             0       140.596       15.7106             0       37.9412             0             0   5.30918e-09     0.0962221     0.0122639        111874        103523   2.37645e+06      0.176297
    0.0381682       1899.99       373.216        125877       68.7085      -3.07426             0       6.67337       3.17716             0       139.112       15.5665             0       37.3492             0             0   4.88929e-09     0.0962046     0.0124439        111880        103524   2.37776e+06      0.176265
    0.0383383       1899.99       372.779        125179       68.3334      -2.89665             0       6.67687       3.17913             0       137.627       15.4222             0       36.7566             0             0   4.46528e-09     0.0961869     0.0126253        111886        103526   2.37907e+06      0.176232
    0.0385085       1899.99       372.342        124481       67.9583      -2.71903             0       6.68036        3.1811             0       136.143       15.2779             0        36.164             0             0   4.04127e-09     0.0961692     0.0128067        111892        103527   2.38038e+06        0.1762
    0.0386787       1899.99       371.904        123784       67.5832      -2.54141             0       6.68386       3.18307             0       134.658       15.1335             0       35.5714             0             0   3.61726e-09     0.0961515     0.0129881        111898        103529   2.38168e+06      0.176168
    0.0388488       1899.99       371.467        123086       67.2081       -2.3638             0       6.68736       3.18504             0       133.174       14.9892             0       34.9788             0             0   3.19325e-09     0.0961338     0.0131695        111904        103530   2.38299e+06      0.176135
     0.039019       1899.99        371.02        122372        66.832      -2.18982             0       6.69143        3.1855             0       131.688       14.8474             0       34.3789             0             0   2.79355e-09     0.0961155     0.0133581        111910        103531   2.38431e+06      0.176101
    0.0391892       1899.99       370.495        121527       66.4477       -2.0448             0       6.70009       3.17388             0       130.195       14.7259             0       33.7216             0             0   2.58706e-09     0.0960915      0.013604        111916        103533   2.38565e+06      0.176058
    0.0393594       1899.99       369.971        120682       66.0633      -1.89979             0       6.70874       3.16226             0       128.701       14.6045             0       33.0642             0             0   2.38056e-09     0.0960675     0.0138498        111923        103534   2.38699e+06      0.176014
    0.0395295       1899.99       369.446        119836        65.679      -1.75477             0        6.7174       3.15064             0       127.208       14.4831             0       32.4068             0             0   2.17407e-09     0.0960436     0.0140956        111929        103535   2.38832e+06       0.17597
    0.0396997       1899.99       368.922        118991       65.2947      -1.60975             0       6.72606       3.13903             0       125.714       14.3616             0       31.7495             0             0   1.96757e-09     0.0960196     0.0143415        111935        103537   2.38966e+06      0.175926
    0.0398699       1899.99       368.398        118146       64.9104      -1.46473             0       6.73472       3.12741             0       124.221       14.2402             0       31.0921             0             0   1.76108e-09     0.0959957     0.0145873        111941        103538     2.391e+06      0.175882
      0.04004       1899.99       367.867        117296       64.5309      -1.32785             0       6.74434       3.11329             0        122.75       14.1264             0       30.4242             0             0   1.58045e-09     0.0959725     0.0148249        111947        103540   2.39234e+06       0.17584
    0.0402102       1899.99       367.318        116429       64.1674       -1.2174             0       6.75713       3.09106             0       121.355       14.0376             0       29.7221             0             0   1.48388e-09      0.095952     0.0150354        111954        103541   2.39364e+06      0.175802
    0.0403804       1899.99       366.768        115563       63.8039      -1.10694             0       6.76992       3.06883             0       119.959       13.9488             0         29.02             0             0   1.38731e-09     0.0959315      0.015246        111960        103542   2.39494e+06      0.175764
    0.0405506       1899.99       366.219        114696       63.4403     -0.996487             0       6.78271        3.0466             0       118.564         13.86             0       28.3179             0             0   1.29073e-09      0.095911     0.0154566        111966        103544   2.39625e+06      0.175727
    0.0407207       1899.99       365.669        113829       63.0768     -0.886032             0        6.7955       3.02437             0       117.168       13.7711             0       27.6158             0             0   1.19416e-09     0.0958905     0.0156671        111972        103545   2.39755e+06      0.175689
    0.0408909       1899.99        365.12        112963       62.7133     -0.775578             0       6.80829       3.00214             0       115.773       13.6823             0       26.9137             0             0   1.09759e-09       0.09587     0.0158777        111978        103547   2.39885e+06      0.175652
    0.0410611       1899.99       364.543        112051       62.3523     -0.684605             0       6.82177       2.97714             0       114.434       13.5737             0       26.2095             0             0   1.01819e-09     0.0958533      0.016049        111984        103548    2.4001e+06      0.175621
    0.0412312       1899.98       363.919        111060       61.9957     -0.628444             0       6.83648       2.94719             0       113.195       13.4299             0       25.5016             0             0   9.69467e-10     0.0958434     0.0161501        111990        103550   2.40124e+06      0.175603
    0.0414014       1899.98       363.294        110068       61.6392     -0.572284             0       6.85119       2.91723             0       111.956        13.286             0       24.7936             0             0   9.20745e-10     0.0958336     0.0162512        111996        103551   2.40238e+06      0.175585
    0.0415716       1899.98        362.67        109077       61.2827     -0.516123             0        6.8659       2.88728             0       110.718       13.1422             0       24.0857             0             0   8.72022e-10     0.0958237     0.0163523        112002        103553   2.40352e+06      0.175567
    0.0417417       1899.98       362.045        108086       60.9262     -0.459962             0       6.88061       2.85733             0       109.479       12.9983             0       23.3777             0             0     8.233e-10     0.0958139     0.0164534        112008        103554   2.40466e+06      0.175549
    0.0419119       1899.98       361.421        107094       60.5697     -0.403801             0       6.89532       2.82738             0       108.241       12.8545             0       22.6698             0             0   7.74578e-10      0.095804     0.0165545        112014        103556    2.4058e+06      0.175531
    0.0420821       1899.98       360.722        105989       60.2294     -0.357845             0       6.90915       2.79503             0       107.148       12.6689             0       21.9698             0             0   7.36292e-10     0.0958004     0.0165921        112020        103557    2.4069e+06      0.175524
    0.0422523       1899.97       359.944        104762       59.9065     -0.322841             0       6.92204       2.76011             0       106.212       12.4386             0       21.2784             0             0   7.09206e-10     0.0958033     0.0165616        112025        103558   2.40796e+06       0.17553
    0.0424224       1899.97       359.166        103534       59.5836     -0.287838             0       6.93492        2.7252             0       105.275       12.2083             0        20.587             0             0   6.82121e-10     0.0958063     0.0165311        112031        103560   2.40902e+06      0.175535
    0.0425926       1899.96       358.388        102307       59.2607     -0.252834             0       6.94781       2.69028             0       104.339        11.978             0       19.8956             0             0   6.55035e-10     0.0958093     0.0165007        112036        103561   2.41007e+06       0.17554
    0.0427628       1899.96        357.61        101079       58.9378      -0.21783             0        6.9607       2.65537             0       103.403       11.7477             0       19.2042             0             0    6.2795e-10     0.0958122     0.0164702        112042        103563   2.41113e+06      0.175546
    0.0429329       1899.95       356.831       99851.5       58.6149     -0.182827             0       6.97358       2.62045             0       102.467       11.5174             0       18.5128             0             0   6.00864e-10     0.0958152     0.0164397        112047        103564   2.41219e+06      0.175551
    0.0431031       1899.95       356.023       98626.2       58.2737     -0.170463             0       6.98303       2.58123             0       101.722       11.1944             0        17.853             0             0    5.7209e-10     0.0958246     0.0163432        112052        103566   2.41322e+06      0.175569
    0.0432733       1899.93       355.195       97402.3       57.9207     -0.172826             0       6.99023        2.5392             0       101.102       10.8113             0       17.2138             0             0   5.42217e-10     0.0958382     0.0162038        112057        103567   2.41423e+06      0.175593
    0.0434434       1899.92       354.367       96178.4       57.5676     -0.175189             0       6.99744       2.49718             0       100.482       10.4281             0       16.5745             0             0   5.12344e-10     0.0958518     0.0160644        112062        103568   2.41524e+06      0.175618
    0.0436136       1899.91       353.539       94954.5       57.2146     -0.177552             0       7.00464       2.45516             0       99.8625        10.045             0       15.9353             0             0   4.82471e-10     0.0958653      0.015925        112067        103570   2.41625e+06      0.175643
    0.0437838        1899.9       352.711       93730.6       56.8615     -0.179916             0       7.01185       2.41313             0       99.2426        9.6618             0       15.2961             0             0   4.52598e-10     0.0958789     0.0157856        112072        103571   2.41726e+06      0.175668
     0.043954       1899.88       351.883       92506.7       56.5085     -0.182279             0       7.01905       2.37111             0       98.6228       9.27865             0       14.6568             0             0   4.22725e-10     0.0958925     0.0156462        112077        103573   2.41827e+06      0.175693
    0.0441241       1899.83       351.073       91353.1       56.2255     -0.207574             0       7.02108       2.32279             0       98.0991       8.82199             0       14.0521             0             0   3.86552e-10     0.0959128     0.0154374        112081        103574   2.41927e+06       0.17573
    0.0442943       1899.77        350.27       90225.6       55.9685     -0.241377             0       7.02118       2.27213             0        97.611       8.33807             0       13.4602             0             0   3.48042e-10     0.0959357     0.0152028        112084        103575   2.42025e+06      0.175772
    0.0444645       1899.71       349.467       89098.1       55.7115      -0.27518             0       7.02127       2.22148             0        97.123       7.85415             0       12.8683             0             0   3.09532e-10     0.0959585     0.0149682        112088        103577   2.42124e+06      0.175814
    0.0446346       1899.64       348.664       87970.6       55.4546     -0.308983             0       7.02137       2.17082             0       96.6349       7.37023             0       12.2764             0             0   2.71022e-10     0.0959814     0.0147337        112092        103578   2.42222e+06      0.175856
    0.0448048       1899.58       347.861         86843       55.1976     -0.342786             0       7.02147       2.12017             0       96.1469       6.88631             0       11.6845             0             0   2.32512e-10     0.0960042     0.0144991        112095        103579   2.42321e+06      0.175898
     0.044975       1899.52       347.058       85715.5       54.9406     -0.376589             0       7.02157       2.06951             0       95.6588       6.40239             0       11.0926             0             0   1.94002e-10     0.0960271     0.0142646        112099        103581   2.42419e+06       0.17594
    0.0451451       1899.42       346.186       84458.7       54.7199     -0.435798             0       7.00951        2.0082             0       94.8523        5.8668             0       10.5997             0             0   1.99047e-09     0.0960591     0.0139361        112102        103582   2.42504e+06      0.175998
    0.0453153       1899.31       345.301       83179.6       54.5054     -0.499388             0       6.99535       1.94506             0       93.9909       5.32232             0       10.1237             0             0   4.10331e-09     0.0960926     0.0135915        112105        103583   2.42585e+06       0.17606
    0.0454855        1899.2       344.417       81900.4        54.291     -0.562978             0       6.98119       1.88191             0       93.1295       4.77783             0        9.6478             0             0   6.21616e-09     0.0961262     0.0132468        112108        103584   2.42667e+06      0.176121