#           y             T         TMean   TPrime2Mean           U_x           U_y           U_z       UMean_x       UMean_y       UMean_z UPrime2Mea... UPrime2Mea... UPrime2Mea... UPrime2Mea... UPrime2Mea... UPrime2Mea...            O2           H2O          C3H8             p         pMean   pPrime2Mean           CO2
         0.02       752.639       358.602       54255.2       18.4356       2.87977             0       21.7748     -0.205338             0       37.6488       -2.8449             0       23.5928             0             0     0.0681317     0.0256826      0.440147        112404        103517   2.82056e+06     0.0470553
    0.0201677       712.082       356.413       51857.8       18.1599       2.71579             0       21.7788     -0.188925             0       37.5245      -2.29296             0       23.9556             0             0       0.07611     0.0228448       0.43459        112417        103516   2.82233e+06     0.0418559
    0.0203353       671.525       354.225       49460.5       17.8842        2.5518             0       21.7828     -0.172513             0       37.4001      -1.74103             0       24.3183             0             0     0.0840882      0.020007      0.429032        112431        103516   2.82411e+06     0.0366565
     0.020503       630.969       352.036       47063.1       17.6085       2.38782             0       21.7867       -0.1561             0       37.2758      -1.18909             0       24.6811             0             0     0.0920664     0.0171692      0.423475        112444        103515   2.82588e+06     0.0314571
    0.0206707       590.412       349.848       44665.8       17.3328       2.22383             0       21.7907     -0.139688             0       37.1514     -0.637159             0       25.0439             0             0      0.100045     0.0143313      0.417917        112458        103515   2.82766e+06     0.0262577
    0.0208383       549.856       347.659       42268.5       17.0571       2.05985             0       21.7947     -0.123276             0       37.0271    -0.0852241             0       25.4067             0             0      0.108023     0.0114935       0.41236        112471        103515   2.82944e+06     0.0210583
     0.021006       510.204       345.485       39892.9       16.7877         1.897             0       21.7934     -0.106493             0       36.9089      0.475019             0       25.7709             0             0      0.115897    0.00871859      0.406609        112485        103514   2.83121e+06     0.0159741
    0.0211737       494.916       343.687       38104.5       16.6856       1.76482             0       21.6525     -0.079762             0       36.9552       1.25887             0       26.1738             0             0      0.120973    0.00763648      0.395647        112499        103514   2.83305e+06     0.0139915
    0.0213413       479.628       341.889         36316       16.5835       1.63264             0       21.5116    -0.0530305             0       37.0016       2.04272             0       26.5766             0             0      0.126049    0.00655438      0.384686        112514        103514   2.83489e+06     0.0120089
     0.021509       464.339       340.091       34527.6       16.4815       1.50046             0       21.3707    -0.0262991             0       37.0479       2.82657             0       26.9795             0             0      0.131125    0.00547228      0.373724        112528        103513   2.83673e+06     0.0100262
    0.0216767       449.051       338.294       32739.1       16.3794       1.36828             0       21.2297    0.00043238             0       37.0943       3.61043             0       27.3823             0             0        0.1362    0.00439018      0.362763        112543        103513   2.83856e+06    0.00804363
    0.0218443       433.763       336.496       30950.7       16.2774        1.2361             0       21.0888     0.0271638             0       37.1406       4.39428             0       27.7852             0             0      0.141276    0.00330808      0.351801        112557        103512    2.8404e+06    0.00606101
     0.022012       419.192       334.719       29194.1       16.1888       1.11293             0       20.9376     0.0529422             0       37.1802       5.18103             0       28.1923             0             0      0.146234    0.00228031      0.340795        112572        103512   2.84224e+06    0.00417796
    0.0221797        413.92       333.211       27850.6        16.275       1.10645             0       20.6534     0.0663705             0       37.1312       6.00545             0       28.6545             0             0      0.149663    0.00195671      0.329209        112584        103512   2.84404e+06    0.00358506
    0.0223473       408.647       331.704       26507.2       16.3613       1.09998             0       20.3693     0.0797987             0       37.0822       6.82987             0       29.1167             0             0      0.153091    0.00163311      0.317623        112596        103511   2.84585e+06    0.00299217
     0.022515       403.375       330.196       25163.7       16.4475        1.0935             0       20.0851      0.093227             0       37.0333       7.65429             0       29.5789             0             0       0.15652    0.00130951      0.306038        112609        103511   2.84765e+06    0.00239927
    0.0226827       398.102       328.689       23820.3       16.5338       1.08703             0       19.8009      0.106655             0       36.9843       8.47871             0       30.0411             0             0      0.159949   0.000985914      0.294452        112621        103510   2.84946e+06    0.00180638
    0.0228504       392.829       327.181       22476.8       16.6201       1.08055             0       19.5167      0.120083             0       36.9354       9.30313             0       30.5034             0             0      0.163377   0.000662313      0.282866        112633        103510   2.85126e+06    0.00121348
     0.023018       387.933       325.701       21165.7       16.7093        1.0899             0       19.2214       0.13059             0       36.8605       10.1102             0       30.9894             0             0      0.166664   0.000368145      0.271597        112646        103510   2.85306e+06   0.000674511
    0.0231857       386.163       324.446       20123.3       16.8234       1.23063             0       18.8337      0.116834             0       36.5708       10.7728             0       31.6734             0             0      0.168767   0.000318427       0.26296        112659        103509   2.85482e+06   0.000583417
    0.0233534       384.392       323.191       19080.9       16.9375       1.37136             0       18.4459      0.103078             0        36.281       11.4354             0       32.3575             0             0      0.170871   0.000268708      0.254323        112672        103509   2.85658e+06   0.000492323
     0.023521       382.621       321.937       18038.4       17.0516       1.51209             0       18.0582     0.0893222             0       35.9912        12.098             0       33.0415             0             0      0.172975    0.00021899      0.245687        112685        103509   2.85834e+06    0.00040123
    0.0236887       380.851       320.682         16996       17.1657       1.65282             0       17.6705     0.0755661             0       35.7014       12.7606             0       33.7255             0             0      0.175079   0.000169271       0.23705        112698        103508    2.8601e+06   0.000310136
    0.0238564        379.08       319.427       15953.6       17.2798       1.79355             0       17.2827       0.06181             0       35.4116       13.4233             0       34.4096             0             0      0.177183   0.000119552      0.228413        112711        103508   2.86186e+06   0.000219042
     0.024024       377.281       318.196         14941       17.3982       1.95062             0       16.8952      0.043075             0        35.155       14.0474             0       35.1356             0             0      0.179222   7.61461e-05      0.219993        112724        103508   2.86361e+06   0.000139514
    0.0241917       375.311        317.11       14106.9       17.5423       2.20542             0        16.509   -0.00543027             0       35.0965       14.4413             0       36.1126             0             0      0.180873   7.04836e-05       0.21287        112741        103507   2.86529e+06   0.000129139
    0.0243594       373.341       316.025       13272.7       17.6864       2.46022             0       16.1227    -0.0539355             0        35.038       14.8352             0       37.0897             0             0      0.182525   6.48211e-05      0.205748        112757        103507   2.86696e+06   0.000118764
     0.024527       371.371       314.939       12438.6       17.8305       2.71502             0       15.7364     -0.102441             0       34.9796       15.2292             0       38.0668             0             0      0.184177   5.91585e-05      0.198625        112774        103506   2.86863e+06   0.000108389
    0.0246947       369.401       313.853       11604.5       17.9746       2.96982             0       15.3502     -0.150946             0       34.9211       15.6231             0       39.0438             0             0      0.185828    5.3496e-05      0.191503        112790        103506    2.8703e+06   9.80146e-05
    0.0248624       367.431       312.767       10770.4       18.1187       3.22462             0       14.9639     -0.199451             0       34.8626        16.017             0       40.0209             0             0       0.18748   4.78335e-05       0.18438        112807        103505   2.87198e+06   8.76398e-05
      0.02503       365.341       311.708       9972.78       18.2782       3.50295             0       14.5935     -0.253061             0       34.8064       16.3838             0       41.0573             0             0      0.189101   4.31199e-05      0.177381        112823        103505   2.87369e+06   7.90036e-05
    0.0251977       362.701       310.775       9342.74       18.5086       3.88916             0       14.2953     -0.330064             0       34.7609       16.6265             0        42.366             0             0      0.190581   4.27557e-05      0.170948        112840        103504   2.87558e+06   7.83364e-05
    0.0253654        360.06       309.841       8712.69       18.7389       4.27536             0       13.9971     -0.407067             0       34.7153       16.8692             0       43.6746             0             0      0.192061   4.23915e-05      0.164516        112857        103503   2.87748e+06   7.76691e-05
     0.025533        357.42       308.908       8082.64       18.9693       4.66157             0       13.6989      -0.48407             0       34.6698       17.1119             0       44.9833             0             0      0.193542   4.20273e-05      0.158083        112874        103503   2.87937e+06   7.70019e-05
    0.0257007        354.78       307.974        7452.6       19.1996       5.04778             0       13.4007     -0.561073             0       34.6242       17.3546             0       46.2919             0             0      0.195022   4.16631e-05       0.15165        112891        103502   2.88126e+06   7.63346e-05
    0.0258684        352.14       307.041       6822.55         19.43       5.43398             0       13.1025     -0.638076             0       34.5786       17.5972             0       47.6006             0             0      0.196503    4.1299e-05      0.145217        112908        103501   2.88315e+06   7.56674e-05
     0.026036       349.551       306.148       6238.28       19.6526       5.83873             0       12.8163     -0.718102             0       34.4558       17.8269             0       48.9747             0             0      0.197913   4.09544e-05      0.139088        112924        103500   2.88508e+06   7.50361e-05
    0.0262037       347.153       305.403       5821.23       19.8468       6.31123             0       12.5743     -0.809169             0       34.0505       18.0091             0       50.5882             0             0      0.199068   4.06816e-05      0.134068        112939        103499   2.88711e+06   7.45362e-05
    0.0263714       344.754       304.659       5404.18        20.041       6.78373             0       12.3322     -0.900236             0       33.6453       18.1913             0       52.2017             0             0      0.200224   4.04087e-05      0.129048        112954        103498   2.88914e+06   7.40364e-05
     0.026539       342.356       303.915       4987.12       20.2352       7.25622             0       12.0901     -0.991303             0       33.2401       18.3735             0       53.8152             0             0      0.201379   4.01359e-05      0.124028        112968        103497   2.89117e+06   7.35365e-05
    0.0267067       339.957       303.171       4570.07       20.4294       7.72872             0       11.8481      -1.08237             0       32.8349       18.5556             0       55.4287             0             0      0.202534   3.98631e-05      0.119008        112983        103496   2.89319e+06   7.30366e-05
    0.0268744       337.558       302.426       4153.02       20.6236       8.20121             0        11.606      -1.17344             0       32.4296       18.7378             0       57.0422             0             0      0.203689   3.95903e-05      0.113988        112998        103495   2.89522e+06   7.25367e-05
     0.027042       335.305       301.735        3780.7        20.775       8.67359             0       11.3584      -1.26505             0       32.0265       18.9089             0       58.7229             0             0      0.204748   3.92724e-05      0.109388        113012        103493   2.89725e+06   7.19544e-05
    0.0272097       333.487       301.204       3542.04       20.7983       9.14561             0       11.0943       -1.3583             0       31.6298       19.0469             0        60.604             0             0      0.205518   3.88202e-05      0.106044        113024        103492   2.89925e+06   7.11259e-05
    0.0273774       331.669       300.672       3303.38       20.8217       9.61762             0       10.8302      -1.45155             0       31.2331       19.1848             0       62.4852             0             0      0.206289    3.8368e-05      0.102699        113036        103491   2.90125e+06   7.02973e-05
     0.027545        329.85       300.141       3064.72       20.8451       10.0896             0        10.566       -1.5448             0       30.8364       19.3228             0       64.3664             0             0      0.207059   3.79157e-05     0.0993545        113048        103489   2.90325e+06   6.94687e-05
    0.0277127       328.032       299.609       2826.06       20.8684       10.5617             0       10.3019      -1.63805             0       30.4397       19.4607             0       66.2476             0             0      0.207829   3.74635e-05       0.09601        113060        103488   2.90525e+06   6.86401e-05
    0.0278804       326.214       299.078       2587.41       20.8918       11.0337             0       10.0377       -1.7313             0       30.0429       19.5987             0       68.1288             0             0        0.2086   3.70113e-05     0.0926655        113071        103486   2.90726e+06   6.78116e-05
     0.028048       324.429       298.588       2376.49       20.8763       11.4608             0       9.76934      -1.82618             0       29.6713       19.7186             0       70.0387             0             0      0.209331   3.64102e-05     0.0894909        113082        103485   2.90911e+06   6.67103e-05
    0.0282157       322.727       298.203       2234.66       20.7641        11.776             0        9.4903      -1.92513             0        29.362       19.7937             0       72.0202             0             0      0.209966   3.54385e-05     0.0867394        113089        103483   2.91058e+06     6.493e-05
    0.0283834       321.024       297.818       2092.83       20.6519       12.0913             0       9.21125      -2.02408             0       29.0527       19.8689             0       74.0016             0             0      0.210601   3.44669e-05      0.083988        113097        103482   2.91205e+06   6.31498e-05
    0.0285511       319.322       297.433          1951       20.5397       12.4065             0       8.93221      -2.12303             0       28.7434        19.944             0        75.983             0             0      0.211237   3.34952e-05     0.0812365        113104        103480   2.91353e+06   6.13695e-05
    0.0287187        317.62       297.048       1809.17       20.4275       12.7218             0       8.65317      -2.22197             0       28.4341       20.0191             0       77.9644             0             0      0.211872   3.25236e-05     0.0784851        113111        103479     2.915e+06   5.95893e-05
    0.0288864       315.918       296.663       1667.34       20.3153        13.037             0       8.37413      -2.32092             0       28.1248       20.0942             0       79.9459             0             0      0.212507   3.15519e-05     0.0757336        113119        103477   2.91647e+06    5.7809e-05
    0.0290541       314.249       296.308       1541.85         20.15       13.2792             0       8.09451      -2.42188             0       27.8228       20.1261             0       81.8773             0             0      0.213107   3.04401e-05     0.0731361        113125        103476   2.91772e+06    5.5772e-05
    0.0292217       312.647       296.014       1450.68       19.8731       13.3679             0       7.81368      -2.52708             0        27.536       20.0671             0       83.7035             0             0      0.213633   2.90338e-05     0.0708624        113129        103474   2.91849e+06   5.31953e-05
    0.0293894       311.045       295.721       1359.52       19.5961       13.4565             0       7.53285      -2.63227             0       27.2492       20.0081             0       85.5298             0             0      0.214159   2.76275e-05     0.0685887        113133        103472   2.91927e+06   5.06186e-05
    0.0295571       309.444       295.427       1268.35       19.3192       13.5452             0       7.25201      -2.73747             0       26.9624       19.9491             0       87.3561             0             0      0.214686   2.62211e-05      0.066315        113137        103471   2.92004e+06    4.8042e-05
    0.0297247       307.842       295.134       1177.19       19.0423       13.6338             0       6.97118      -2.84266             0       26.6757       19.8902             0       89.1823             0             0      0.215212   2.48148e-05     0.0640413        113142        103469   2.92081e+06   4.54653e-05
    0.0298924        306.24        294.84       1086.02       18.7653       13.7224             0       6.69035      -2.94785             0       26.3889       19.8312             0       91.0086             0             0      0.215738   2.34084e-05     0.0617676        113146        103468   2.92159e+06   4.28886e-05
    0.0300601       304.783        294.57       1006.25       18.4408       13.7466             0       6.41199      -3.05404             0       26.1364       19.7151             0       92.7002             0             0      0.216177   2.21027e-05     0.0598744        113148        103467   2.92203e+06   4.04963e-05
    0.0302277       303.586       294.343       946.893       18.0311       13.6552             0       6.13807        -3.162             0       25.9453       19.4969             0       94.1508             0             0      0.216458   2.09772e-05     0.0586631        113148        103465   2.92189e+06   3.84341e-05
    0.0303954       302.389       294.116       887.533       17.6213       13.5638             0       5.86415      -3.26996             0       25.7543       19.2787             0       95.6013             0             0      0.216739   1.98517e-05     0.0574517        113147        103464   2.92175e+06    3.6372e-05
    0.0305631       301.191       293.889       828.172       17.2115       13.4725             0       5.59022      -3.37793             0       25.5632       19.0605             0       97.0518             0             0      0.217021   1.87262e-05     0.0562404        113147        103463    2.9216e+06   3.43098e-05
    0.0307307       299.994       293.661       768.812       16.8017       13.3811             0        5.3163      -3.48589             0       25.3722       18.8423             0       98.5024             0             0      0.217302   1.76007e-05      0.055029        113147        103461   2.92146e+06   3.22477e-05
    0.0308984       298.796       293.434       709.452       16.3919       13.2897             0       5.04238      -3.59385             0       25.1811        18.624             0       99.9529             0             0      0.217583   1.64752e-05     0.0538177        113146        103460   2.92132e+06   3.01855e-05
    0.0310661       297.849       293.227       658.356       15.9431       13.1772             0       4.77345      -3.70012             0        25.053       18.3712             0       101.233             0             0      0.217754   1.55936e-05     0.0530848        113145        103459   2.92095e+06   2.85704e-05
    0.0312337       297.287       293.052       619.971       15.4342        13.032             0        4.5122      -3.80378             0       25.0216        18.065             0        102.25             0             0      0.217754   1.50873e-05     0.0530876        113142        103458   2.92024e+06   2.76427e-05
    0.0314014       296.725       292.877       581.585       14.9253       12.8868             0       4.25096      -3.90743             0       24.9902       17.7588             0       103.267             0             0      0.217755   1.45809e-05     0.0530904        113140        103457   2.91953e+06    2.6715e-05
    0.0315691       296.162       292.703         543.2       14.4164       12.7417             0       3.98971      -4.01109             0       24.9588       17.4527             0       104.284             0             0      0.217755   1.40746e-05     0.0530932        113137        103456   2.91882e+06   2.57873e-05
    0.0317367         295.6       292.528       504.814       13.9075       12.5965             0       3.72847      -4.11475             0       24.9274       17.1465             0       105.301             0             0      0.217756   1.35682e-05     0.0530961        113134        103455   2.91811e+06   2.48595e-05
    0.0319044       295.038       292.353       466.428       13.3986       12.4513             0       3.46722      -4.21841             0        24.896       16.8403             0       106.318             0             0      0.217756   1.30619e-05     0.0530989        113132        103454    2.9174e+06   2.39318e-05
    0.0320721       294.614       292.197       434.312       12.9405       12.3522             0       3.21297      -4.31748             0       24.9372       16.5423             0       107.179             0             0      0.217707   1.26625e-05     0.0533173        113127        103453   2.91642e+06   2.32001e-05
    0.0322397       294.373       292.068       410.512       12.5497       12.3141             0       2.96798      -4.41047             0       25.0746        16.255             0       107.835             0             0      0.217592   1.24051e-05     0.0538215        113121        103452   2.91509e+06   2.27284e-05
    0.0324074       294.132       291.938       386.712       12.1588       12.2761             0       2.72299      -4.50347             0       25.2119       15.9677             0       108.491             0             0      0.217476   1.21476e-05     0.0543258        113114        103452   2.91376e+06   2.22567e-05
    0.0325751       293.892       291.809       362.911        11.768        12.238             0         2.478      -4.59646             0       25.3493       15.6803             0       109.147             0             0      0.217361   1.18902e-05     0.0548301        113108        103451   2.91242e+06    2.1785e-05
    0.0327427       293.651        291.68       339.111       11.3772       12.1999             0       2.23302      -4.68945             0       25.4867        15.393             0       109.803             0             0      0.217246   1.16327e-05     0.0553343        113102        103450   2.91109e+06   2.13133e-05
    0.0329104        293.41        291.55       315.311       10.9864       12.1618             0       1.98803      -4.78244             0       25.6241       15.1057             0       110.458             0             0       0.21713   1.13752e-05     0.0558386        113095        103449   2.90976e+06   2.08415e-05
    0.0330781       293.242       291.438       295.753        10.663       12.1834             0       1.75248      -4.86901             0       25.7726       14.8782             0       110.969             0             0      0.217018   1.11317e-05     0.0563276        113088        103449   2.90826e+06   2.03954e-05
    0.0332457       293.157       291.344       281.062        10.417       12.2735             0       1.52777      -4.94823             0        25.934       14.7192             0       111.314             0             0      0.216911   1.09042e-05      0.056799        113079        103448   2.90657e+06   1.99786e-05
    0.0334134       293.072       291.251       266.371        10.171       12.3636             0       1.30307      -5.02744             0       26.0953       14.5602             0       111.659             0             0      0.216803   1.06767e-05     0.0572703        113070        103448   2.90488e+06   1.95618e-05
    0.0335811       292.988       291.158        251.68       9.92501       12.4537             0       1.07836      -5.10665             0       26.2566       14.4012             0       112.004             0             0      0.216695   1.04492e-05     0.0577417        113061        103447   2.90319e+06    1.9145e-05
    0.0337487       292.903       291.064       236.989       9.67901       12.5437             0      0.853649      -5.18586             0       26.4179       14.2423             0       112.349             0             0      0.216587   1.02218e-05     0.0582131        113052        103447    2.9015e+06   1.87282e-05
    0.0339164       292.818       290.971       222.299       9.43301       12.6338             0       0.62894      -5.26507             0       26.5793       14.0833             0       112.694             0             0      0.216479   9.99426e-06     0.0586845        113043        103447   2.89981e+06   1.83114e-05
    0.0340841       292.784       290.891       210.429       9.23955        12.819             0       0.41596      -5.33604             0       26.6904        14.013             0       112.905             0             0       0.21639   9.86364e-06     0.0590745        113032        103446   2.89784e+06    1.8072e-05
    0.0342518       292.801       290.825       201.363       9.09833       13.0987             0      0.214639      -5.39881             0       26.7517       14.0308             0       112.981             0             0      0.216319    9.8293e-06     0.0593835        113019        103446    2.8956e+06   1.80091e-05
    0.0344194       292.818       290.759       192.297        8.9571       13.3785             0     0.0133178      -5.46158             0       26.8129       14.0487             0       113.058             0             0      0.216248   9.79497e-06     0.0596925        113007        103446   2.89336e+06   1.79462e-05
    0.0345871       292.835       290.693       183.231       8.81588       13.6582             0     -0.188003      -5.52435             0       26.8741       14.0666             0       113.134             0             0      0.216177   9.76064e-06     0.0600016        112994        103446   2.89111e+06   1.78833e-05
    0.0347548       292.852       290.628       174.165       8.67465       13.9379             0     -0.389324      -5.58712             0       26.9354       14.0844             0       113.211             0             0      0.216106    9.7263e-06     0.0603106        112981        103446   2.88887e+06   1.78204e-05
    0.0349224       292.868       290.562       165.099       8.53343       14.2177             0     -0.590646      -5.64989             0       26.9966       14.1023             0       113.288             0             0      0.216035   9.69197e-06     0.0606196        112969        103446   2.88663e+06   1.77575e-05
    0.0350901       292.903       290.507       157.899       8.42653       14.5142             0     -0.781723      -5.70311             0       26.9971       14.1698             0       113.179             0             0       0.21597   9.73742e-06     0.0608994        112955        103446   2.88428e+06   1.78408e-05
    0.0352578       292.954       290.461       152.306        8.3492       14.8251             0     -0.963978      -5.74812             0       26.9452       14.2801             0       112.909             0             0      0.215911   9.85156e-06     0.0611541        112940        103446   2.88185e+06   1.80499e-05