#           y             T         TMean   TPrime2Mean           U_x           U_y           U_z       UMean_x       UMean_y       UMean_z UPrime2Mea... UPrime2Mea... UPrime2Mea... UPrime2Mea... UPrime2Mea... UPrime2Mea...            O2           H2O          C3H8             p         pMean   pPrime2Mean           CO2
         0.04       293.531       289.449       38.9853      0.274159       20.5342             0      -4.42383      -5.43391             0       21.1069       12.6854             0       79.3146             0             0       0.21523   1.25224e-05     0.0640907        112581        103475   2.80279e+06   2.29433e-05
     0.039975       293.532       289.448       38.9295      0.348286       20.5391             0      -4.41641      -5.43914             0       21.1485       12.6948             0       79.5649             0             0      0.215228   1.25569e-05     0.0640995        112582        103475   2.80261e+06   2.30067e-05
    0.0399499       293.533       289.446       38.8736      0.422413       20.5441             0      -4.40899      -5.44436             0       21.1902       12.7042             0       79.8152             0             0      0.215226   1.25915e-05     0.0641084        112583        103475   2.80243e+06     2.307e-05
    0.0399249       293.534       289.445       38.8178      0.496541        20.549             0      -4.40157      -5.44959             0       21.2319       12.7136             0       80.0654             0             0      0.215223   1.26261e-05     0.0641172        112584        103475   2.80225e+06   2.31334e-05
    0.0398999       293.534       289.444        38.762      0.570668        20.554             0      -4.39415      -5.45482             0       21.2736       12.7231             0       80.3157             0             0      0.215221   1.26607e-05     0.0641261        112585        103475   2.80207e+06   2.31968e-05
    0.0398749       293.535       289.443       38.7062      0.644795       20.5589             0      -4.38674      -5.46005             0       21.3152       12.7325             0       80.5659             0             0      0.215219   1.26953e-05     0.0641349        112586        103474   2.80188e+06   2.32601e-05
    0.0398498       293.536       289.441       38.6504      0.718922       20.5639             0      -4.37932      -5.46528             0       21.3569       12.7419             0       80.8162             0             0      0.215217   1.27299e-05     0.0641437        112587        103474    2.8017e+06   2.33235e-05
    0.0398248       293.537        289.44       38.5945       0.79305       20.5688             0       -4.3719      -5.47051             0       21.3986       12.7513             0       81.0665             0             0      0.215215   1.27645e-05     0.0641526        112588        103474   2.80152e+06   2.33869e-05
    0.0397998       293.537       289.439       38.5387      0.867177       20.5738             0      -4.36448      -5.47574             0       21.4402       12.7608             0       81.3167             0             0      0.215213    1.2799e-05     0.0641614        112589        103474   2.80134e+06   2.34502e-05
    0.0397748       293.538       289.438       38.4829      0.941304       20.5787             0      -4.35706      -5.48097             0       21.4819       12.7702             0        81.567             0             0      0.215211   1.28336e-05     0.0641703        112590        103474   2.80116e+06   2.35136e-05
    0.0397497       293.539       289.437       38.4271       1.01543       20.5837             0      -4.34964       -5.4862             0       21.5236       12.7796             0       81.8172             0             0      0.215209   1.28682e-05     0.0641791        112591        103473   2.80098e+06    2.3577e-05
    0.0397247        293.54       289.435       38.3713       1.08956       20.5886             0      -4.34222      -5.49142             0       21.5653        12.789             0       82.0675             0             0      0.215207   1.29028e-05     0.0641879        112592        103473    2.8008e+06   2.36403e-05
    0.0396997        293.54       289.434       38.3154       1.16369       20.5936             0       -4.3348      -5.49665             0       21.6069       12.7984             0       82.3178             0             0      0.215204   1.29374e-05     0.0641968        112593        103473   2.80062e+06   2.37037e-05
    0.0396747       293.541       289.433       38.2596       1.23781       20.5985             0      -4.32738      -5.50188             0       21.6486       12.8079             0        82.568             0             0      0.215202    1.2972e-05     0.0642056        112594        103473   2.80044e+06   2.37671e-05
    0.0396496       293.542       289.432       38.2038       1.31194       20.6035             0      -4.31996      -5.50711             0       21.6903       12.8173             0       82.8183             0             0        0.2152   1.30066e-05     0.0642145        112595        103473   2.80025e+06   2.38305e-05
    0.0396246       293.543        289.43        38.148       1.38607       20.6084             0      -4.31254      -5.51234             0       21.7319       12.8267             0       83.0686             0             0      0.215198   1.30412e-05     0.0642233        112596        103472   2.80007e+06   2.38938e-05
    0.0395996       293.543       289.429       38.0922        1.4602       20.6134             0      -4.30513      -5.51757             0       21.7736       12.8361             0       83.3188             0             0      0.215196   1.30757e-05     0.0642321        112597        103472   2.79989e+06   2.39572e-05
    0.0395746       293.544       289.428       38.0364       1.53432       20.6183             0      -4.29771       -5.5228             0       21.8153       12.8456             0       83.5691             0             0      0.215194   1.31103e-05      0.064241        112598        103472   2.79971e+06   2.40206e-05
    0.0395495       293.545       289.427       37.9805       1.60845       20.6233             0      -4.29029      -5.52803             0        21.857        12.855             0       83.8193             0             0      0.215192   1.31449e-05     0.0642498        112599        103472   2.79953e+06   2.40839e-05
    0.0395245       293.546       289.426       37.9247       1.68258       20.6282             0      -4.28287      -5.53326             0       21.8986       12.8644             0       84.0696             0             0       0.21519   1.31795e-05     0.0642587        112600        103472   2.79935e+06   2.41473e-05
    0.0394995       293.546       289.424       37.8689        1.7567       20.6332             0      -4.27545      -5.53849             0       21.9403       12.8738             0       84.3199             0             0      0.215188   1.32141e-05     0.0642675        112601        103471   2.79917e+06   2.42107e-05
    0.0394745       293.547       289.423       37.8131       1.83083       20.6381             0      -4.26803      -5.54371             0        21.982       12.8832             0       84.5701             0             0      0.215185   1.32487e-05     0.0642763        112602        103471   2.79899e+06    2.4274e-05
    0.0394494       293.548       289.422       37.7573       1.90496       20.6431             0      -4.26061      -5.54894             0       22.0237       12.8927             0       84.8204             0             0      0.215183   1.32833e-05     0.0642852        112603        103471   2.79881e+06   2.43374e-05
    0.0394244       293.549       289.421       37.7014       1.97909        20.648             0      -4.25319      -5.55417             0       22.0653       12.9021             0       85.0707             0             0      0.215181   1.33178e-05      0.064294        112604        103471   2.79862e+06   2.44008e-05
    0.0393994        293.55       289.419       37.6456       2.05321        20.653             0      -4.24577       -5.5594             0        22.107       12.9115             0       85.3209             0             0      0.215179   1.33524e-05     0.0643029        112605        103471   2.79844e+06   2.44641e-05
    0.0393744        293.55       289.418       37.5898       2.12734       20.6579             0      -4.23835      -5.56463             0       22.1487       12.9209             0       85.5712             0             0      0.215177    1.3387e-05     0.0643117        112606        103470   2.79826e+06   2.45275e-05
    0.0393493       293.551       289.417        37.534       2.20147       20.6629             0      -4.23093      -5.56986             0       22.1903       12.9303             0       85.8214             0             0      0.215175   1.34216e-05     0.0643205        112607        103470   2.79808e+06   2.45909e-05
    0.0393243       293.552       289.416       37.4782       2.27559       20.6678             0      -4.22352      -5.57509             0        22.232       12.9398             0       86.0717             0             0      0.215173   1.34562e-05     0.0643294        112608        103470    2.7979e+06   2.46543e-05
    0.0392993       293.553       289.415       37.4223       2.34972       20.6728             0       -4.2161      -5.58032             0       22.2737       12.9492             0        86.322             0             0      0.215171   1.34908e-05     0.0643382        112609        103470   2.79772e+06   2.47176e-05
    0.0392743       293.553       289.413       37.3665       2.42385       20.6777             0      -4.20868      -5.58555             0       22.3154       12.9586             0       86.5722             0             0      0.215168   1.35254e-05     0.0643471        112610        103470   2.79754e+06    2.4781e-05
    0.0392492       293.554       289.412       37.3107       2.49798       20.6827             0      -4.20126      -5.59077             0        22.357        12.968             0       86.8225             0             0      0.215166     1.356e-05     0.0643559        112611        103469   2.79736e+06   2.48444e-05
    0.0392242       293.555       289.411       37.2549        2.5721       20.6876             0      -4.19384        -5.596             0       22.3987       12.9775             0       87.0728             0             0      0.215164   1.35945e-05     0.0643647        112612        103469   2.79718e+06   2.49077e-05
    0.0391992       293.556        289.41       37.1991       2.64623       20.6926             0      -4.18642      -5.60123             0       22.4404       12.9869             0        87.323             0             0      0.215162   1.36291e-05     0.0643736        112613        103469   2.79699e+06   2.49711e-05
    0.0391742       293.556       289.408       37.1432       2.72036       20.6975             0        -4.179      -5.60646             0        22.482       12.9963             0       87.5733             0             0       0.21516   1.36637e-05     0.0643824        112614        103469   2.79681e+06   2.50345e-05
    0.0391491       293.557       289.407       37.0874       2.79449       20.7025             0      -4.17158      -5.61169             0       22.5237       13.0057             0       87.8235             0             0      0.215158   1.36983e-05     0.0643913        112615        103469   2.79663e+06   2.50978e-05
    0.0391241       293.558       289.406       37.0316       2.86861       20.7074             0      -4.16416      -5.61692             0       22.5654       13.0151             0       88.0738             0             0      0.215156   1.37329e-05     0.0644001        112616        103468   2.79645e+06   2.51612e-05
    0.0390991       293.559       289.405       36.9758       2.94274       20.7124             0      -4.15674      -5.62215             0       22.6071       13.0246             0       88.3241             0             0      0.215154   1.37675e-05     0.0644089        112617        103468   2.79627e+06   2.52246e-05
    0.0390741       293.559       289.403         36.92       3.01687       20.7173             0      -4.14932      -5.62738             0       22.6487        13.034             0       88.5743             0             0      0.215152   1.38021e-05     0.0644178        112618        103468   2.79609e+06   2.52879e-05
     0.039049        293.56       289.402       36.8642       3.09099       20.7223             0      -4.14191      -5.63261             0       22.6904       13.0434             0       88.8246             0             0      0.215149   1.38366e-05     0.0644266        112619        103468   2.79591e+06   2.53513e-05
     0.039024       293.561       289.401       36.8083       3.16512       20.7272             0      -4.13449      -5.63784             0       22.7321       13.0528             0       89.0748             0             0      0.215147   1.38712e-05     0.0644355        112620        103468   2.79573e+06   2.54147e-05
     0.038999       293.562         289.4       36.7554         3.239       20.7315             0      -4.12683      -5.64297             0       22.7741       13.0627             0       89.3238             0             0      0.215145   1.39053e-05     0.0644443        112621        103467   2.79555e+06   2.54772e-05
     0.038974       293.563         289.4       36.7714       3.30677       20.7194             0      -4.11351      -5.64582             0       22.8251        13.084             0       89.5417             0             0      0.215143   1.39282e-05     0.0644523        112623        103467   2.79557e+06   2.55191e-05
    0.0389489       293.564       289.399       36.7875       3.37454       20.7073             0       -4.1002      -5.64866             0       22.8762       13.1052             0       89.7595             0             0      0.215141   1.39511e-05     0.0644603        112625        103467    2.7956e+06   2.55611e-05
    0.0389239       293.566       289.399       36.8035       3.44232       20.6952             0      -4.08688      -5.65151             0       22.9272       13.1264             0       89.9773             0             0       0.21514    1.3974e-05     0.0644683        112627        103467   2.79562e+06    2.5603e-05
    0.0388989       293.567       289.399       36.8196       3.51009        20.683             0      -4.07356      -5.65436             0       22.9782       13.1477             0       90.1952             0             0      0.215138   1.39969e-05     0.0644763        112628        103467   2.79564e+06    2.5645e-05
    0.0388739       293.568       289.399       36.8356       3.57787       20.6709             0      -4.06025      -5.65721             0       23.0292       13.1689             0        90.413             0             0      0.215136   1.40198e-05     0.0644843        112630        103467   2.79566e+06   2.56869e-05
    0.0388488       293.569       289.399       36.8517       3.64564       20.6588             0      -4.04693      -5.66005             0       23.0803       13.1901             0       90.6309             0             0      0.215134   1.40427e-05     0.0644923        112632        103466   2.79568e+06   2.57288e-05
    0.0388238       293.571       289.398       36.8677       3.71342       20.6467             0      -4.03361       -5.6629             0       23.1313       13.2114             0       90.8487             0             0      0.215132   1.40656e-05     0.0645003        112633        103466    2.7957e+06   2.57708e-05
    0.0387988       293.572       289.398       36.8838       3.78119       20.6346             0      -4.02029      -5.66575             0       23.1823       13.2326             0       91.0666             0             0       0.21513   1.40885e-05     0.0645083        112635        103466   2.79572e+06   2.58127e-05
    0.0387738       293.573       289.398       36.8998       3.84896       20.6225             0      -4.00698      -5.66859             0       23.2333       13.2538             0       91.2844             0             0      0.215128   1.41114e-05     0.0645163        112637        103466   2.79574e+06   2.58547e-05
    0.0387487       293.575       289.398       36.9159       3.91674       20.6103             0      -3.99366      -5.67144             0       23.2844       13.2751             0       91.5022             0             0      0.215126   1.41343e-05     0.0645243        112639        103466   2.79576e+06   2.58966e-05
    0.0387237       293.576       289.397       36.9319       3.98451       20.5982             0      -3.98034      -5.67429             0       23.3354       13.2963             0       91.7201             0             0      0.215124   1.41572e-05     0.0645323        112640        103466   2.79578e+06   2.59385e-05
    0.0386987       293.577       289.397        36.948       4.05229       20.5861             0      -3.96703      -5.67714             0       23.3864       13.3176             0       91.9379             0             0      0.215122     1.418e-05     0.0645404        112642        103465    2.7958e+06   2.59805e-05
    0.0386737       293.579       289.397        36.964       4.12006        20.574             0      -3.95371      -5.67998             0       23.4374       13.3388             0       92.1558             0             0      0.215121   1.42029e-05     0.0645484        112644        103465   2.79582e+06   2.60224e-05
    0.0386486        293.58       289.397       36.9801       4.18784       20.5619             0      -3.94039      -5.68283             0       23.4884         13.36             0       92.3736             0             0      0.215119   1.42258e-05     0.0645564        112646        103465   2.79584e+06   2.60644e-05
    0.0386236       293.581       289.397       36.9961       4.25561       20.5498             0      -3.92707      -5.68568             0       23.5395       13.3813             0       92.5915             0             0      0.215117   1.42487e-05     0.0645644        112647        103465   2.79586e+06   2.61063e-05
    0.0385986       293.582       289.396       37.0122       4.32338       20.5376             0      -3.91376      -5.68852             0       23.5905       13.4025             0       92.8093             0             0      0.215115   1.42716e-05     0.0645724        112649        103465   2.79588e+06   2.61482e-05
    0.0385736       293.584       289.396       37.0282       4.39116       20.5255             0      -3.90044      -5.69137             0       23.6415       13.4237             0       93.0271             0             0      0.215113   1.42945e-05     0.0645804        112651        103464    2.7959e+06   2.61902e-05
    0.0385485       293.585       289.396       37.0442       4.45893       20.5134             0      -3.88712      -5.69422             0       23.6925        13.445             0        93.245             0             0      0.215111   1.43174e-05     0.0645884        112653        103464   2.79592e+06   2.62321e-05
    0.0385235       293.586       289.396       37.0603       4.52671       20.5013             0      -3.87381      -5.69707             0       23.7436       13.4662             0       93.4628             0             0      0.215109   1.43403e-05     0.0645964        112654        103464   2.79594e+06   2.62741e-05
    0.0384985       293.588       289.395       37.0763       4.59448       20.4892             0      -3.86049      -5.69991             0       23.7946       13.4874             0       93.6807             0             0      0.215107   1.43632e-05     0.0646044        112656        103464   2.79596e+06    2.6316e-05
    0.0384735       293.589       289.395       37.0924       4.66226       20.4771             0      -3.84717      -5.70276             0       23.8456       13.5087             0       93.8985             0             0      0.215105   1.43861e-05     0.0646124        112658        103464   2.79598e+06   2.63579e-05
    0.0384484        293.59       289.395       37.1084       4.73003       20.4649             0      -3.83385      -5.70561             0       23.8966       13.5299             0       94.1164             0             0      0.215104    1.4409e-05     0.0646204        112659        103464   2.79601e+06   2.63999e-05
    0.0384234       293.592       289.395       37.1245        4.7978       20.4528             0      -3.82054      -5.70846             0       23.9476       13.5511             0       94.3342             0             0      0.215102   1.44318e-05     0.0646284        112661        103463   2.79603e+06   2.64418e-05
    0.0383984       293.593       289.395       37.1405       4.86558       20.4407             0      -3.80722       -5.7113             0       23.9987       13.5724             0        94.552             0             0        0.2151   1.44547e-05     0.0646364        112663        103463   2.79605e+06   2.64838e-05
    0.0383734       293.594       289.394       37.1566       4.93335       20.4286             0       -3.7939      -5.71415             0       24.0497       13.5936             0       94.7699             0             0      0.215098   1.44776e-05     0.0646445        112665        103463   2.79607e+06   2.65257e-05
    0.0383483       293.595       289.394       37.1726       5.00113       20.4165             0      -3.78058        -5.717             0       24.1007       13.6149             0       94.9877             0             0      0.215096   1.45005e-05     0.0646525        112666        103463   2.79609e+06   2.65676e-05
    0.0383233       293.597       289.394       37.1887        5.0689       20.4044             0      -3.76727      -5.71984             0       24.1517       13.6361             0       95.2056             0             0      0.215094   1.45234e-05     0.0646605        112668        103463   2.79611e+06   2.66096e-05
    0.0382983       293.598       289.394       37.2047       5.13668       20.3923             0      -3.75395      -5.72269             0       24.2028       13.6573             0       95.4234             0             0      0.215092   1.45463e-05     0.0646685        112670        103463   2.79613e+06   2.66515e-05
    0.0382733       293.599       289.393       37.2208       5.20445       20.3801             0      -3.74063      -5.72554             0       24.2538       13.6786             0       95.6413             0             0       0.21509   1.45692e-05     0.0646765        112672        103462   2.79615e+06   2.66935e-05
    0.0382482       293.601       289.393       37.2368       5.27222        20.368             0      -3.72732      -5.72839             0       24.3048       13.6998             0       95.8591             0             0      0.215088   1.45921e-05     0.0646845        112673        103462   2.79617e+06   2.67354e-05
    0.0382232       293.602       289.393       37.2529          5.34       20.3559             0        -3.714      -5.73123             0       24.3558        13.721             0       96.0769             0             0      0.215086    1.4615e-05     0.0646925        112675        103462   2.79619e+06   2.67773e-05
    0.0381982       293.603       289.393       37.2689       5.40777       20.3438             0      -3.70068      -5.73408             0       24.4069       13.7423             0       96.2948             0             0      0.215085   1.46379e-05     0.0647005        112677        103462   2.79621e+06   2.68193e-05
    0.0381732       293.605       289.393        37.285       5.47555       20.3317             0      -3.68736      -5.73693             0       24.4579       13.7635             0       96.5126             0             0      0.215083   1.46608e-05     0.0647085        112678        103462   2.79623e+06   2.68612e-05
    0.0381481       293.606       289.392        37.301       5.54332       20.3196             0      -3.67405      -5.73978             0       24.5089       13.7847             0       96.7305             0             0      0.215081   1.46836e-05     0.0647165        112680        103462   2.79625e+06   2.69032e-05
    0.0381231       293.607       289.392       37.3171        5.6111       20.3074             0      -3.66073      -5.74262             0       24.5599        13.806             0       96.9483             0             0      0.215079   1.47065e-05     0.0647245        112682        103461   2.79627e+06   2.69451e-05
    0.0380981       293.608       289.392       37.3331       5.67887       20.2953             0      -3.64741      -5.74547             0       24.6109       13.8272             0       97.1662             0             0      0.215077   1.47294e-05     0.0647325        112684        103461   2.79629e+06   2.69871e-05
    0.0380731        293.61       289.392       37.3491       5.74664       20.2832             0       -3.6341      -5.74832             0        24.662       13.8484             0        97.384             0             0      0.215075   1.47523e-05     0.0647405        112685        103461   2.79631e+06    2.7029e-05
     0.038048       293.611       289.391       37.3652       5.81442       20.2711             0      -3.62078      -5.75116             0        24.713       13.8697             0       97.6018             0             0      0.215073   1.47752e-05     0.0647486        112687        103461   2.79633e+06   2.70709e-05
     0.038023       293.612       289.391       37.3812       5.88219        20.259             0      -3.60746      -5.75401             0        24.764       13.8909             0       97.8197             0             0      0.215071   1.47981e-05     0.0647566        112689        103461   2.79635e+06   2.71129e-05
     0.037998       293.613       289.391        37.404       5.94871       20.2454             0      -3.59372      -5.75662             0       24.8139       13.9123             0       98.0339             0             0      0.215069   1.48198e-05     0.0647644        112691        103460   2.79639e+06   2.71527e-05
     0.037973       293.612       289.392       37.5046       6.00077       20.2157             0      -3.57506      -5.75644             0       24.8504       13.9348             0        98.206             0             0      0.215068   1.48283e-05     0.0647709        112693        103460    2.7966e+06   2.71682e-05
    0.0379479       293.611       289.393       37.6051       6.05284        20.186             0       -3.5564      -5.75626             0        24.887       13.9573             0        98.378             0             0      0.215066   1.48367e-05     0.0647773        112696        103460   2.79682e+06   2.71837e-05
    0.0379229        293.61       289.394       37.7056        6.1049       20.1562             0      -3.53774      -5.75608             0       24.9236       13.9798             0       98.5501             0             0      0.215065   1.48452e-05     0.0647837        112698        103460   2.79703e+06   2.71992e-05
    0.0378979       293.608       289.395       37.8061       6.15696       20.1265             0      -3.51908       -5.7559             0       24.9601       14.0023             0       98.7222             0             0      0.215063   1.48537e-05     0.0647902        112701        103460   2.79724e+06   2.72147e-05
    0.0378729       293.607       289.396       37.9067       6.20903       20.0968             0      -3.50042      -5.75573             0       24.9967       14.0248             0       98.8943             0             0      0.215062   1.48621e-05     0.0647966        112703        103460   2.79746e+06   2.72302e-05
    0.0378478       293.606       289.397       38.0072       6.26109        20.067             0      -3.48176      -5.75555             0       25.0333       14.0473             0       99.0663             0             0       0.21506   1.48706e-05      0.064803        112706        103460   2.79767e+06   2.72457e-05
    0.0378228       293.605       289.398       38.1077       6.31315       20.0373             0       -3.4631      -5.75537             0       25.0699       14.0698             0       99.2384             0             0      0.215059    1.4879e-05     0.0648095        112708        103460   2.79789e+06   2.72612e-05
    0.0377978       293.603       289.399       38.2082       6.36522       20.0076             0      -3.44444      -5.75519             0       25.1064       14.0923             0       99.4105             0             0      0.215057   1.48875e-05     0.0648159        112711        103460    2.7981e+06   2.72767e-05
    0.0377728       293.602         289.4       38.3088       6.41728       19.9778             0      -3.42578      -5.75501             0        25.143       14.1149             0       99.5826             0             0      0.215056   1.48959e-05     0.0648223        112713        103459   2.79831e+06   2.72921e-05
    0.0377477       293.601       289.401       38.4093       6.46934       19.9481             0      -3.40712      -5.75483             0       25.1796       14.1374             0       99.7546             0             0      0.215054   1.49044e-05     0.0648288        112716        103459   2.79853e+06   2.73076e-05
    0.0377227       293.599       289.402       38.5098       6.52141       19.9183             0      -3.38846      -5.75466             0       25.2161       14.1599             0       99.9267             0             0      0.215053   1.49129e-05     0.0648352        112718        103459   2.79874e+06   2.73231e-05