#           y             T         TMean   TPrime2Mean           U_x           U_y           U_z       UMean_x       UMean_y       UMean_z UPrime2Mea... UPrime2Mea... UPrime2Mea... UPrime2Mea... UPrime2Mea... UPrime2Mea...            O2           H2O          C3H8             p         pMean   pPrime2Mean           CO2
            0         299.6       288.424      0.970598       46.4047             0             0       16.6387             0             0       84.3916             0             0             0             0             0      0.224837    0.00151754      0.006868        111160        103478   1.92157e+06    0.00278042
  0.000500501       315.709       288.544       8.59816       46.8724     0.0544642             0       16.6351     0.0126159             0        83.825     -0.132315             0      0.084809             0             0      0.221418    0.00289881    0.00755419        111145        103478   1.92116e+06    0.00531115
     0.001001       331.946       288.665       16.6817       47.3435       0.10882             0       16.6315     0.0252358             0        83.259     -0.264563             0      0.169825             0             0      0.217981    0.00428803    0.00823908        111130        103478   1.92075e+06    0.00785647
    0.0015015       412.424       289.434       252.305        49.441      0.109164             0       16.6415     0.0398418             0       83.0152     -0.363557             0      0.357993             0             0      0.205312    0.00964958    0.00828101        111101        103478   1.92109e+06     0.0176798
     0.002002       493.585       290.212       498.521       51.5507      0.109668             0       16.6518     0.0544449             0        82.786     -0.462429             0      0.546685             0             0      0.192585     0.0150371    0.00831316        111071        103478   1.92143e+06     0.0275507
    0.0025025       744.531       293.108       3382.36       56.6562      0.150106             0       16.7256     0.0683171             0       86.1957     -0.531083             0      0.865609             0             0      0.165182      0.026878    0.00591256        111068        103477    1.9211e+06     0.0492456
     0.003003       995.855        296.01       6286.16       61.7799      0.192476             0       16.7998     0.0821827             0        89.633     -0.599197             0       1.18561             0             0      0.137741     0.0387342    0.00351584        111065        103477   1.92076e+06     0.0709682
    0.0035035       1309.77       300.142       12497.2       69.9169      0.554942             0        16.938       0.09494             0       97.6379     -0.577816             0       1.68468             0             0      0.104235     0.0530969    0.00176272        111079        103477   1.92077e+06     0.0972834
     0.004004       1622.25       304.265       18706.6       78.0474      0.914385             0       17.0764      0.107663             0       105.674     -0.555881             0       2.18526             0             0     0.0707931     0.0674282   5.02889e-05        111094        103476   1.92077e+06      0.123541
    0.0045045       1755.69       307.428       24719.9       85.3545      0.898964             0       17.2372       0.11618             0       117.576     -0.465279             0       2.87287             0             0     0.0453825     0.0778666    0.00338331        111101        103475    1.9201e+06      0.142666
   0.00500501       1887.73       310.583       30714.9       92.6222      0.881884             0       17.3978      0.124709             0       129.492     -0.372951             0        3.5631             0             0     0.0201252     0.0882301    0.00681882        111109        103474   1.91942e+06      0.161654
   0.00550551       1879.89       312.925         34901       95.9756      0.700583             0       17.5372      0.134349             0       142.796     -0.109794             0       4.51342             0             0     0.0100342     0.0911816      0.020401        111113        103473   1.91845e+06      0.167062
   0.00600601       1871.71       315.251       39051.5       99.2929      0.517082             0       17.6758      0.144115             0       156.085      0.158037             0       5.46604             0             0   6.38858e-05     0.0940712     0.0340928        111118        103473   1.91748e+06      0.172356
   0.00650651       1835.86       316.218       40267.5       99.6322      0.152473             0       17.7442      0.164261             0       168.104       0.81078             0       6.60808             0             0   3.17754e-05     0.0918721     0.0568121        111115        103472   1.91707e+06      0.168327
   0.00700701       1799.99       317.169       41452.1       99.9548     -0.212155             0       17.8111      0.184285             0        180.06       1.45245             0       7.74374             0             0   1.13654e-07     0.0896757     0.0795014        111113        103471   1.91667e+06      0.164303
   0.00750751       1762.42       316.936       40423.4       99.1058     -0.578167             0       17.7691       0.19575             0       187.505       1.31421             0       8.43008             0             0   5.64168e-08     0.0876717      0.100078        111105        103470   1.91706e+06      0.160631
   0.00800801       1725.11       316.705       39399.7       98.2552      -0.94397             0       17.7257      0.207174             0       194.873       1.17048             0       9.11346             0             0   9.42713e-11     0.0856826        0.1205        111096        103468   1.91746e+06      0.156987
   0.00850851       1703.53       316.527       38676.6       97.2995       -1.2968             0       17.5941      0.216145             0       197.526      0.689253             0       9.61447             0             0   4.67421e-11     0.0846138      0.131473        111084        103467   1.91884e+06      0.155028
   0.00900901       1682.32        316.35         37959       96.3519      -1.65066             0       17.4616      0.225181             0       200.126      0.209535             0       10.1179             0             0   6.77498e-14      0.083562      0.142269        111072        103466    1.9202e+06      0.153101
   0.00950951       1680.94       316.224       37538.9       95.8428      -2.06069             0       17.2849      0.237778             0       199.866     -0.187534             0       10.7512             0             0   3.35575e-14     0.0834466       0.14345        111060        103465   1.92076e+06       0.15289
      0.01001       1679.86       316.096       37120.3       95.3408      -2.47254             0       17.1078       0.25036             0       199.564     -0.586282             0       11.3832             0             0   4.85038e-17     0.0833434      0.144505        111048        103464   1.92133e+06      0.152701
    0.0105105       1693.69        315.95         36773       95.1843      -2.97375             0       16.9069       0.26221             0       197.176      -1.06728             0       11.9532             0             0   2.40009e-17     0.0838401      0.139401        111041        103463   1.92214e+06      0.153611
     0.011011       1707.66       315.802       36425.1       95.0278      -3.47347             0       16.7056      0.274148             0       194.771      -1.54508             0       12.5248             0             0   3.66557e-20     0.0843404       0.13426        111034        103462   1.92295e+06      0.154527
    0.0115115       1728.42       315.603       36048.4       94.8746      -3.90708             0       16.4871      0.289994             0       191.621      -1.88059             0         13.17             0             0   1.81205e-20      0.085005      0.127435        111033        103461   1.92331e+06      0.155745
     0.012012       1749.37       315.402       35671.3       94.7422      -4.34228             0       16.2683      0.305862             0        188.47       -2.2177             0       13.8165             0             0   2.97548e-23     0.0856704      0.120601        111031        103459   1.92366e+06      0.156964
    0.0125125       1777.74        315.14       35279.5       95.4567      -4.84234             0       16.0319      0.322599             0       185.294      -2.62007             0       14.5146             0             0   1.46945e-23     0.0863692      0.113428        111033        103458   1.92389e+06      0.158244
     0.013013       1806.07       314.878       34888.5       96.1822      -5.34828             0       15.7953      0.339335             0       182.104      -3.02056             0       15.2149             0             0   2.56119e-26     0.0870647      0.106289        111035        103457   1.92409e+06      0.159519
    0.0135135       1833.13       314.585         34524       97.3186      -6.07495             0       15.5468      0.356073             0       178.399      -3.35038             0       15.9961             0             0     1.685e-26     0.0876355       0.10043        111037        103456   1.92335e+06      0.160565
     0.014014       1859.67       314.286       34151.5       98.4093      -6.80424             0       15.2978      0.372865             0       174.635        -3.672             0        16.777             0             0   1.86567e-26     0.0881989     0.0946477        111039        103455   1.92258e+06      0.161597
    0.0145145       1867.91       313.747       33500.1       97.9157      -7.62441             0       15.0301      0.391499             0       168.844      -3.70857             0       17.5428             0             0   3.87343e-25     0.0885006     0.0915519        111037        103453   1.92071e+06       0.16215
     0.015015       1875.56       313.203       32843.4       97.3787       -8.4432             0       14.7617      0.410295             0       163.047       -3.7351             0       18.3029             0             0   1.19585e-24     0.0887974     0.0885057        111035        103452   1.91884e+06      0.162693
    0.0155155       1864.03       312.462       32011.9       95.4388       -9.2172             0       14.4724      0.434322             0       157.029      -3.43669             0       18.8737             0             0   1.62253e-23     0.0889381     0.0870626        111029        103451    1.9171e+06      0.162951
     0.016016       1852.17       311.722       31180.9       93.5161      -9.98954             0        14.183      0.458405             0       151.093       -3.1419             0         19.44             0             0   5.89892e-23     0.0890754     0.0856538        111022        103450   1.91539e+06      0.163203
    0.0165165       1830.07       311.034       30361.8       92.1135       -10.712             0       13.8883      0.484192             0       147.641      -2.95654             0         19.87             0             0   9.40718e-22     0.0891116     0.0852818        111011        103450   1.91423e+06      0.163269
     0.017017       1807.56       310.347         29538       90.7165      -11.4329             0       13.5936       0.51003             0       144.233      -2.77128             0       20.2986             0             0   3.61772e-21     0.0891424     0.0849651        110999        103449   1.91305e+06      0.163325
    0.0175175       1773.29        309.67       28581.1       89.4818      -12.1102             0       13.2973      0.537334             0       142.048        -2.589             0        20.686             0             0   5.73018e-20     0.0890201     0.0862191        110984        103448    1.9111e+06      0.163101
     0.018018       1738.97       308.994       27622.2       88.1896      -12.7694             0       13.0006      0.564595             0       139.815      -2.40588             0       21.0677             0             0   1.76683e-19     0.0888904     0.0875487        110969        103448   1.90915e+06      0.162864
    0.0185185       1703.15       308.357         26609       85.3587       -12.947             0        12.694      0.590684             0       136.278      -2.20048             0       21.2984             0             0   2.05528e-18     0.0885633     0.0909034        110951        103447   1.90727e+06      0.162265
     0.019019       1667.96       307.728       25604.7       82.4888      -13.1097             0       12.3872      0.616639             0       132.699      -2.00262             0       21.5245             0             0   5.67107e-18     0.0882355     0.0942663        110934        103447    1.9054e+06      0.161664
    0.0195195       1648.68       307.298         24825       78.6302      -12.8984             0       12.0783       0.63918             0       128.057      -1.99577             0       21.6355             0             0   5.32649e-17     0.0878874     0.0978371        110913        103447   1.90389e+06      0.161026
      0.02002       1629.94       306.874       24055.9        74.792      -12.6754             0       11.7694      0.661729             0       123.404      -1.99242             0       21.7434             0             0   2.02173e-16     0.0875414      0.101386        110892        103447   1.90237e+06      0.160392
    0.0205205        1624.1       306.598       23541.8         71.44      -12.1689             0       11.4608      0.684484             0       118.465      -2.07322             0       21.7781             0             0   2.78262e-15     0.0872459      0.104417        110870        103447   1.90072e+06      0.159851
     0.021021       1618.77       306.327       23038.6       68.1433      -11.6683             0       11.1526      0.707383             0       113.523      -2.15687             0       21.8097             0             0   1.01224e-14     0.0869532       0.10742        110848        103447   1.89906e+06      0.159314
    0.0215215       1625.28       306.166       22786.4       66.1065      -11.3025             0       10.8539      0.733567             0       108.519      -2.30548             0       21.7692             0             0    1.2602e-13     0.0867225      0.109787        110820        103447   1.89715e+06      0.158892
     0.022022        1632.5       306.008       22539.2       64.1174      -10.9332             0       10.5567      0.759728             0       103.528      -2.45498             0       21.7218             0             0   5.85883e-13     0.0865001      0.112068        110792        103447   1.89525e+06      0.158484
    0.0225225       1655.41       305.909       22400.2       63.1637      -10.4907             0       10.2898      0.785384             0       98.8325      -2.62352             0       21.5241             0             0   8.51919e-12     0.0864595      0.112485        110762        103447   1.89375e+06       0.15841
     0.023023       1678.96       305.808       22259.3       62.2383      -10.0798             0       10.0241      0.811021             0       94.1592      -2.80581             0       21.3228             0             0   5.14329e-11     0.0864233      0.112856        110731        103447   1.89224e+06      0.158344
    0.0235235       1715.98       305.669         22077       61.8991      -10.3263             0       9.78471      0.836249             0       89.9482      -3.27329             0       21.0467             0             0   8.19808e-10     0.0864792      0.112284        110694        103447   1.89066e+06      0.158446
     0.024024       1752.89        305.53         21901       61.5508      -10.5612             0       9.54623      0.861676             0        85.753      -3.75239             0        20.757             0             0   6.00117e-09     0.0865346      0.111716        110657        103448   1.88909e+06      0.158547
    0.0245245       1787.67       305.405       21849.7       61.0221      -10.5672             0       9.32645      0.891042             0       81.8707      -4.46195             0       20.1971             0             0   9.87068e-08     0.0865807      0.111248        110628        103448   1.88785e+06      0.158632
     0.025025       1821.86       305.277       21791.2       60.4227      -10.5989             0       9.10719      0.920415             0       77.9967      -5.16296             0       19.6428             0             0   5.31372e-07     0.0866265      0.110783        110599        103448   1.88659e+06      0.158716
    0.0255255       1844.74       305.081       21597.4       58.4807      -11.1195             0       8.89796      0.949922             0       74.2827      -5.70142             0       19.1946             0             0   7.42326e-06     0.0866664      0.110354        110576        103448   1.88494e+06      0.158789
     0.026026       1867.02       304.871       21371.4       56.4991      -11.5687             0       8.68918      0.980374             0       70.6176      -6.20669             0       18.7496             0             0   4.38033e-05     0.0866913      0.109952        110553        103448   1.88332e+06      0.158835
    0.0265265       1878.14        304.42       20557.2       53.7929      -10.7144             0       8.48863       1.02805             0        67.844      -6.10657             0       18.3607             0             0   0.000617775     0.0864404      0.110026        110538        103448   1.88214e+06      0.158375
     0.027027       1870.38       303.874       19580.5       51.0812       -9.7152             0       8.28873       1.07698             0       65.0703      -5.96722             0       17.9509             0             0    0.00336372     0.0852054      0.110757        110524        103448   1.88105e+06      0.156112
    0.0275275       1531.82       301.655       15759.8       48.2698      -6.17904             0       8.10016       1.14804             0       62.2961      -5.14049             0       17.1735             0             0     0.0441594     0.0667315      0.123009        110536        103448   1.88146e+06      0.122265
     0.028028       1191.52        299.41       11923.8       45.5239       -2.7744             0       7.91328       1.21815             0       59.4628      -4.34655             0       16.4033             0             0     0.0850819      0.048194      0.135362        110549        103448   1.88188e+06     0.0883004
    0.0285285       821.749       296.719       7829.43         43.88      -1.58689             0       7.75503       1.27217             0        55.635      -4.10533             0       15.7552             0             0      0.128144     0.0285843      0.149434        110592        103448   1.88232e+06     0.0523717
     0.029029       470.878       294.108       3897.28       42.2456     -0.420072             0       7.60043       1.32487             0       51.8335      -3.87651             0       15.1205             0             0        0.1688     0.0100457      0.162968        110636        103448   1.88279e+06     0.0184056
    0.0295295        426.95       292.785       2599.38       40.7652      0.410809             0       7.50523       1.35611             0       48.4577      -3.84899             0       14.7046             0             0      0.170393    0.00890407       0.16776        110690        103448   1.88383e+06     0.0163139
      0.03003       384.257        291.49       1346.06        39.269       1.24913             0       7.41471       1.38662             0       45.1527      -3.80468             0       14.2996             0             0       0.17184    0.00782306      0.172566        110745        103448   1.88494e+06     0.0143333
    0.0305305       360.932       290.608       791.127       37.5257       2.20408             0       7.39756       1.40584             0       42.9571       -3.4973             0       14.0657             0             0      0.170998    0.00769156      0.177578        110798        103448   1.88708e+06     0.0140924
     0.031031       338.225       289.755       262.684       35.8477       3.12792             0       7.38382       1.42428             0       40.8009      -3.19192             0       13.8388             0             0      0.170315    0.00750265      0.182484        110851        103447   1.88923e+06     0.0137463
    0.0315315       324.871       289.343       135.076       35.1568       3.58113             0       7.42157       1.43093             0       39.2399      -2.91674             0       13.7165             0             0      0.172049    0.00644517      0.185802        110901        103447   1.89139e+06     0.0118087
     0.032032       311.971       288.951       15.1809       34.5038       4.02311             0        7.4602       1.43693             0        37.683      -2.64979             0       13.5979             0             0      0.173811    0.00538663      0.189007        110950        103447   1.89353e+06     0.0098693
    0.0325325       305.726       288.854       8.07978       34.4058       4.30073             0       7.51153       1.43325             0       36.1865       -2.5031             0       13.5328             0             0      0.175987    0.00431257      0.190569        110992        103447   1.89536e+06    0.00790143
     0.033033        299.74       288.762       1.41587       34.3254       4.55404             0       7.56302       1.42927             0       34.7067      -2.36531             0       13.4687             0             0      0.178115    0.00326744      0.192046        111033        103447   1.89717e+06    0.00598655
    0.0335335       297.425       288.737      0.939101       34.4962       4.46327             0       7.61667       1.42109             0       33.4634      -2.35348             0       13.4204             0             0       0.17955    0.00263167      0.192335        111066        103447   1.89886e+06    0.00482171
     0.034034       295.206       288.714      0.488192       34.6594       4.36957             0       7.67063       1.41274             0       32.2337      -2.34884             0       13.3724             0             0      0.180978    0.00201183      0.192489        111097        103447   1.90052e+06    0.00368606
    0.0345345       294.286       288.704       0.39172       34.7189       4.23583             0       7.72876       1.40195             0       31.1907      -2.44287             0       13.3279             0             0      0.182317    0.00161034      0.190789        111109        103447   1.90193e+06    0.00295044
     0.035035       293.389       288.696      0.300102       34.7737       4.09615             0       7.78777       1.39102             0       30.1578      -2.54529             0       13.2828             0             0       0.18368    0.00121473      0.188924        111119        103447   1.90334e+06    0.00222561
    0.0355355       292.809       288.692      0.272964       34.7673       3.87761             0       7.85845       1.37819             0       29.2591      -2.75915             0       13.2303             0             0       0.18536   0.000897308      0.184877        111117        103447   1.90465e+06    0.00164404
     0.036036       292.237       288.689      0.246954       34.7442       3.67114             0       7.92968       1.36525             0       28.3754        -2.981             0       13.1731             0             0      0.187031   0.000588464      0.180781        111114        103448   1.90595e+06    0.00107817
    0.0365365       291.787       288.687      0.235477       34.5072       3.62009             0       8.00811       1.35075             0       27.6856      -3.30574             0       13.0547             0             0       0.18859   0.000390165      0.176039        111102        103448   1.90705e+06   0.000714854
     0.037037       291.349       288.686      0.224315       34.2487       3.57453             0       8.08596       1.33585             0       27.0295      -3.63716             0       12.9273             0             0      0.190096   0.000200995      0.171433        111090        103448   1.90815e+06   0.000368261
    0.0375375       291.072       288.686      0.217087       33.7219       3.59765             0       8.15646       1.31576             0       26.7941      -4.05224             0       12.6876             0             0      0.190944   0.000126072      0.168515        111078        103449   1.90911e+06   0.000230988
     0.038038       290.807       288.686      0.210014        33.184       3.62158             0       8.22567        1.2952             0          26.6      -4.46971             0       12.4375             0             0      0.191742   5.53059e-05      0.165772        111065        103449   1.91005e+06   0.000101331
    0.0385385       290.677       288.687      0.204812       32.5121       3.65522             0       8.27908       1.26898             0       26.9091      -4.91623             0       12.0603             0             0      0.191932   3.50725e-05      0.165154        111052        103450   1.91073e+06   6.42594e-05
     0.039039       290.554       288.688      0.199681       31.8555       3.67766             0       8.33076       1.24231             0       27.2676      -5.36083             0       11.6721             0             0      0.192068    1.6046e-05      0.164756        111039        103451   1.91139e+06   2.93992e-05
    0.0395395       290.501       288.689      0.195386         31.38       3.56761             0        8.3621       1.21028             0       28.2093      -5.78265             0       11.1549             0             0      0.191571   1.12847e-05      0.166965        111025        103452   1.91196e+06   2.06756e-05
      0.04004       290.449        288.69      0.191125       30.9344       3.45127             0       8.39101       1.17783             0       29.2092      -6.19598             0        10.628             0             0      0.191006   6.73546e-06      0.169468        111011        103453    1.9125e+06   1.23406e-05
    0.0405405       290.419       288.689       0.18724       30.8335        3.2624             0       8.39199       1.14055             0       30.8786      -6.51156             0       9.98849             0             0      0.189659   4.62504e-06      0.175347        110990        103454   1.91278e+06   8.47393e-06
     0.041041        290.39       288.689      0.183379       30.7631       3.06916             0       8.38998       1.10283             0       32.5997      -6.81362             0       9.34164             0             0      0.188318    2.6278e-06      0.181199        110968        103455   1.91305e+06   4.81461e-06
    0.0415415       290.378       288.686      0.179779       31.0342       2.82703             0       8.35442       1.06032             0       34.8996      -6.96445             0       8.61241             0             0      0.187041   1.89756e-06      0.186758        110942        103457   1.91321e+06   3.47669e-06
     0.042042       290.367       288.683      0.176272       31.3139       2.58649             0       8.31557       1.01727             0       37.2221      -7.10023             0       7.88032             0             0      0.185835   1.22211e-06       0.19201        110915        103458   1.91337e+06   2.23914e-06
    0.0425425       290.361       288.679      0.173793       31.6879       2.36344             0       8.24085        0.9683             0        39.791      -7.07187             0       7.11702             0             0      0.185398   1.14406e-06      0.193911        110886        103460   1.91351e+06   2.09613e-06
     0.043043       290.354       288.674      0.171536       32.0418        2.1449             0       8.16341       0.91875             0       42.3693      -7.03102             0       6.35656             0             0      0.184996   1.07653e-06      0.195659        110859        103461   1.91365e+06   1.97241e-06
    0.0435435       290.342        288.67      0.171636       32.1819       1.97423             0       8.05705      0.863005             0       45.0479      -6.85756             0       5.62633             0             0      0.184967   1.12089e-06      0.195786        110840        103463   1.91378e+06   2.05368e-06
     0.044044        290.33       288.666      0.171985       32.3053       1.81045             0       7.94867      0.806564             0       47.7561      -6.67556             0       4.90186             0             0      0.184945   1.17242e-06      0.195881        110822        103464   1.91391e+06   2.14809e-06
    0.0445445       290.327       288.663      0.174922        32.255       1.71818             0       7.81929      0.742912             0       50.7722      -6.40509             0       4.23711             0             0      0.185001   1.29832e-06      0.195636        110821        103465   1.91402e+06   2.37876e-06
     0.045045       290.324       288.659      0.178005       32.2363       1.62326             0       7.68739      0.678497             0        53.814      -6.12735             0       3.57854             0             0      0.185078   1.42275e-06        0.1953        110822        103467   1.91413e+06   2.60674e-06
    0.0455455       290.327       288.656      0.182576       32.5379       1.50159             0       7.53005      0.606369             0       57.1163      -5.77616             0       2.98256             0             0      0.185367   1.53229e-06      0.194042        110842        103468   1.91441e+06   2.80744e-06