#           y             T         TMean   TPrime2Mean           U_x           U_y           U_z       UMean_x       UMean_y       UMean_z UPrime2Mea... UPrime2Mea... UPrime2Mea... UPrime2Mea... UPrime2Mea... UPrime2Mea...            O2           H2O          C3H8             p         pMean   pPrime2Mean           CO2
  1.11022e-19       290.636        288.17      0.371774       29.0995    -4.427e-15             0       23.2711  -6.66588e-16             0        13.535   -1.3114e-15             0   7.31106e-17             0             0      0.229998   3.98867e-08   9.52519e-06        112558        103522   2.77855e+06   7.30799e-08
  0.000500501       290.652       288.178       0.38652       29.0751     0.0506378             0       23.2704    0.00583168             0       13.5336     -0.168874             0     0.0451264             0             0      0.229992   2.05867e-07   3.16629e-05        112559        103522   2.77853e+06   3.77187e-07
     0.001001       290.668       288.185      0.403571       29.0508      0.101315             0       23.2696     0.0116633             0       13.5323     -0.337763             0     0.0903627             0             0      0.229987   3.76557e-07   5.41031e-05        112560        103522   2.77851e+06   6.89923e-07
    0.0015015       290.889       288.275       1.57043       29.0833      0.171852             0       23.2741     0.0174884             0        13.602     -0.513878             0      0.190422             0             0      0.229941   2.89747e-06   0.000227416        112558        103522   2.77825e+06   5.30871e-06
     0.002002       291.117       288.367       2.82755       29.1156      0.242235             0       23.2786     0.0233139             0       13.6718     -0.689962             0       0.29092             0             0      0.229894   5.52383e-06   0.000403027        112556        103521   2.77799e+06   1.01207e-05
    0.0025025       293.086       288.924       26.5598       29.1199      0.274181             0        23.281     0.0292418             0       13.7835     -0.858326             0      0.500668             0             0      0.229654   3.44058e-05    0.00115073        112549        103521   2.77807e+06   6.30379e-05
     0.003003       295.108       289.489       51.3029       29.1254      0.306763             0       23.2837      0.035173             0       13.8969      -1.02715             0       0.71188             0             0      0.229407   6.50324e-05    0.00190894        112542        103521   2.77814e+06   0.000119152
    0.0035035       306.068         291.6       243.493       29.3185       0.44478             0       23.3169     0.0416302             0       14.3024      -1.27273             0       1.16549             0             0      0.228078   0.000384684     0.0044085        112531        103520   2.77833e+06   0.000704813
     0.004004       317.346       293.754       460.831       29.5099      0.583598             0       23.3502     0.0482048             0       14.7091       -1.5183             0       1.62109             0             0        0.2267   0.000722672    0.00692796        112520        103519   2.77853e+06    0.00132407
    0.0045045       368.047       301.378       3796.41       29.4726      0.821934             0       23.3994     0.0693394             0       15.2696      -1.76413             0       2.32308             0             0      0.219387    0.00333433     0.0119142        112491        103518   2.77972e+06    0.00610912
   0.00500501       421.615       309.269        7583.9       29.4325       1.06499             0       23.4498     0.0914785             0       15.8476      -2.00019             0       3.03567             0             0      0.211754    0.00608926     0.0168245        112462        103518    2.7809e+06     0.0111567
   0.00550551       759.091       343.605       56110.9        29.106       1.77503             0       23.6194      0.213077             0       18.1572      -1.26871             0       4.79718             0             0      0.172363     0.0230271     0.0142185        112444        103516   2.78121e+06       0.04219
   0.00600601       1096.72        377.89        104639       28.7806       2.49166             0       23.7872      0.334574             0       20.4596     -0.547766             0       6.55217             0             0      0.132848     0.0400201      0.011587        112427        103515   2.78151e+06     0.0733243
   0.00650651       1446.78       408.068        153281       28.5366       3.75093             0       23.8092      0.447693             0       22.1704     -0.693824             0       7.77148             0             0     0.0830952     0.0615536    0.00685798        112424        103513    2.7805e+06      0.112778
   0.00700701       1792.67       437.851        201278        28.318       4.98815             0       23.8271      0.559036             0        23.871     -0.847198             0       8.97054             0             0     0.0338039     0.0828742    0.00230802        112421        103511   2.77952e+06      0.151841
   0.00750751       1844.99       439.816        203822        29.888       4.67283             0       23.5543      0.545349             0       24.8616      -1.51576             0       8.74371             0             0     0.0170144     0.0892007     0.0103659        112409        103510   2.78093e+06      0.163432
   0.00800801        1896.2       441.752        206294       31.4806       4.35414             0       23.2757      0.532336             0       25.8849      -2.15966             0        8.5252             0             0   0.000489555     0.0953953     0.0186263        112397        103509   2.78233e+06      0.174782
   0.00850851        1879.1       441.958        204329       34.4662       3.82857             0       22.6491      0.560755             0       28.9268      -1.28643             0       8.81878             0             0   0.000243853     0.0934813      0.039347        112392        103508   2.78334e+06      0.171275
   0.00900901       1861.63       442.174        202368       37.4467       3.30658             0       22.0143      0.589145             0       32.0085     -0.411623             0       9.10902             0             0   2.55066e-06     0.0915506     0.0602199        112386        103508   2.78434e+06      0.167738
   0.00950951       1823.75       442.967        200614       40.1498       2.97916             0       20.9388      0.615976             0       37.2602      0.549522             0       9.21742             0             0   1.26599e-06     0.0887092     0.0893953        112384        103508   2.78481e+06      0.162532
      0.01001       1785.88       443.783        198906       42.8379        2.6563             0       19.8631      0.642294             0       42.5609       1.51678             0       9.32115             0             0   6.94759e-09     0.0858763      0.118482        112382        103508   2.78528e+06      0.157341
    0.0105105       1748.56       445.739        199493       44.7906       2.55697             0       18.7801       0.64346             0       50.2632       2.78383             0       9.19564             0             0   3.44266e-09     0.0834646      0.143238        112381        103508   2.78567e+06      0.152923
     0.011011       1711.36       447.652        200014       46.7025       2.46328             0       17.7054      0.643398             0       57.9199       4.02866             0       9.07531             0             0   1.46841e-11     0.0810638      0.167882        112380        103508   2.78607e+06      0.148524
    0.0115115       1679.68       447.654        197588       46.7963       2.62062             0            17      0.588753             0       63.5481       4.28572             0       9.18479             0             0   7.26772e-12     0.0791499      0.187525        112381        103508   2.78687e+06      0.145017
     0.012012       1648.31       447.585        195032       46.8574       2.77337             0        16.304      0.533658             0       69.0748       4.51335             0       9.29911             0             0   2.89983e-14     0.0772506       0.20702        112382        103508   2.78768e+06      0.141537
    0.0125125       1629.47       444.633        187186       45.5856       2.73896             0       15.9946      0.460271             0       70.4718        3.5443             0       9.61049             0             0   1.43482e-14     0.0759425      0.220455        112382        103508   2.78926e+06      0.139141
     0.013013       1611.14       441.647        179303       44.3001        2.6982             0       15.6911      0.386955             0        71.801       2.57186             0       9.93164             0             0   7.81388e-17     0.0746648      0.233579        112382        103508   2.79086e+06        0.1368
    0.0135135       1611.85       437.429        170010       42.5039       2.41928             0       15.6136      0.316307             0       70.5905       1.47278             0       10.6193             0             0   4.09258e-17     0.0745281       0.23502        112384        103507     2.793e+06      0.136549
     0.014014       1612.42        433.16        160701       40.7152        2.1311             0       15.5422      0.246014             0       69.3475      0.371147             0       11.3156             0             0   3.42148e-17     0.0743964      0.236411        112385        103505   2.79516e+06      0.136308
    0.0145145       1608.17       427.158        150853       39.1864       1.52136             0       15.6817      0.188052             0        66.977     -0.819248             0       12.3107             0             0   1.08636e-15     0.0744335      0.236102        112387        103504   2.79792e+06      0.136376
     0.015015       1603.34       421.143        141044       37.6689      0.911338             0       15.8279      0.130131             0       64.6034      -2.00781             0       13.3182             0             0   2.78846e-14     0.0744496      0.236008        112389        103502   2.80069e+06      0.136406
    0.0155155       1579.79       414.744        132505       36.5162      0.292472             0       16.1885     0.0735703             0       62.1307      -3.13717             0       14.7222             0             0   8.87138e-13     0.0737872      0.242874        112392        103500   2.80385e+06      0.135192
     0.016016       1555.55       408.373        124011       35.3706     -0.325573             0       16.5562     0.0174804             0       59.6676      -4.25713             0       16.1312             0             0   1.55829e-11     0.0730786      0.250212        112395        103498   2.80703e+06      0.133894
    0.0165165        1510.1       402.823        116891       34.4399     -0.918816             0       17.1421    -0.0243605             0       57.4972      -5.09303             0       17.6889             0             0   4.48833e-10     0.0709737      0.271818        112400        103495   2.81099e+06      0.130037
     0.017017       1464.11       397.277        109777       33.5094      -1.50556             0       17.7356    -0.0644935             0       55.3534      -5.88599             0       19.2483             0             0   5.40541e-09     0.0688054      0.294072        112406        103492   2.81497e+06      0.126064
    0.0175175       1402.92       391.852        102836       32.5864      -1.90757             0       18.5473    -0.0561013             0       53.9656      -5.45919             0       20.8562             0             0   1.38878e-07      0.064835      0.334756        112414        103488   2.81965e+06       0.11879
     0.018018       1342.17       386.425       95905.5       31.6702      -2.31547             0       19.3547    -0.0463203             0       52.6217      -4.99415             0       22.4669             0             0   6.60886e-07     0.0608694       0.37539        112422        103485   2.82436e+06      0.111524
    0.0185185       1293.37       380.963       89225.7        30.937      -2.88114             0        20.044   0.000651262             0       52.4506      -3.50493             0       24.1531             0             0    1.1587e-05     0.0570286      0.414699        112431        103481   2.83002e+06      0.104487
     0.019019       1245.33       375.497       82557.2       30.2216      -3.45032             0       20.7191     0.0467887             0       52.2847      -2.00968             0       25.8449             0             0   4.26714e-05     0.0532711      0.453067        112440        103476    2.8357e+06     0.0976027
    0.0195195       1216.39       369.938       76173.7       29.9553      -4.10815             0       21.0359     0.0718116             0       52.2501     -0.361922             0       27.6788             0             0   0.000584076     0.0516249       0.46758        112444        103472   2.84223e+06     0.0945864
      0.02002       1185.52       364.404         69828       29.6538      -4.74687             0       21.3431     0.0962654             0       52.1607       1.27909             0       29.5252             0             0    0.00151731     0.0498941      0.481259        112447        103467   2.84878e+06     0.0914153
    0.0205205       1108.55       359.478       64389.2        28.507      -4.92721             0       21.4201      0.107063             0       50.7561       2.75821             0       31.6723             0             0     0.0118543     0.0461343      0.474902        112447        103462    2.8559e+06     0.0845266
     0.021021       1035.09       354.637       59060.2       27.3773      -5.07601             0       21.4899      0.117168             0       49.3036       4.22464             0       33.8303             0             0     0.0218767     0.0425674      0.467933        112446        103458   2.86303e+06     0.0779914
    0.0215215       1041.85       351.716       56234.7       26.6375      -4.50529             0       21.3973      0.111487             0       46.7598       5.40186             0       36.2364             0             0     0.0247208     0.0434006      0.447012        112445        103453   2.87072e+06     0.0795179
     0.022022       1053.99       348.852       53492.5       25.9792      -3.94817             0       21.2958      0.103978             0       44.2059       6.56043             0       38.6485             0             0     0.0269848     0.0445399      0.425471        112444        103448   2.87844e+06     0.0816053
    0.0225225       1183.04       347.241       52562.3       27.0921      -3.68655             0       21.0005     0.0567583             0       41.4308       7.31399             0       41.1892             0             0     0.0166471     0.0523301      0.390447        112446        103442   2.88676e+06     0.0958785
     0.023023       1310.31       345.646       51658.2        28.206      -3.47112             0       20.6937    0.00748092             0       38.6948       8.04858             0       43.7315             0             0    0.00662913     0.0599991      0.355277        112448        103437   2.89507e+06       0.10993
    0.0235235       1400.57       344.397       51294.9       29.3381      -4.21356             0       20.1495    -0.0844779             0       36.7714       8.38997             0       46.3101             0             0    0.00324364     0.0651546      0.317074        112462        103432   2.90319e+06      0.119375
     0.024024       1488.95       343.169       50951.7       30.4167      -4.96836             0        19.601     -0.178283             0       34.9057       8.72519             0       48.8923             0             0   2.01583e-05     0.0701943      0.279355        112475        103427   2.91129e+06      0.128609
    0.0245245       1540.18       342.358       51007.5       30.4358      -5.96831             0       18.9671     -0.308716             0       34.1853       8.93838             0       51.5448             0             0   1.00608e-05     0.0729388      0.251224        112489        103423   2.91886e+06      0.133638
     0.025025       1590.34       341.564       51075.3        30.456      -6.92673             0       18.3378     -0.440014             0       33.4834       9.16153             0       54.2024             0             0   5.08085e-07     0.0756238      0.223702        112502        103418   2.92641e+06      0.138557
    0.0255255       1620.37       341.081       51369.1       30.4963      -7.09643             0       17.7928     -0.587733             0        33.134       9.57406             0       56.9584             0             0    1.3061e-06     0.0771769      0.207756        112515        103413    2.9336e+06      0.141403
     0.026026       1650.51       340.625       51717.3       30.6373      -7.22779             0       17.2498     -0.735984             0       32.7967       9.99286             0       59.7177             0             0   2.16563e-06     0.0787039      0.192077        112528        103408   2.94091e+06        0.1442
    0.0265265       1682.72       340.652       53058.3       32.6126      -6.66017             0       16.7414     -0.893916             0       32.6784       10.5261             0       62.5355             0             0    4.1465e-06     0.0797548      0.181281        112542        103402   2.95012e+06      0.146126
     0.027027       1715.53        340.69       54424.2       34.6077       -6.0872             0       16.2281      -1.05305             0        32.579       11.0529             0       65.3555             0             0   6.12118e-06     0.0808169      0.170371        112557        103397   2.95942e+06      0.148072
    0.0275275       1759.04        340.92       56227.7       36.9506      -5.42044             0       15.6307      -1.23318             0       32.8103        11.468             0       68.2138             0             0   7.98759e-06     0.0820758      0.157443        112570        103390   2.97026e+06      0.150378
     0.028028       1802.08       341.135       57990.2       39.2533      -4.75509             0       15.0278      -1.41462             0       33.0357       11.8741             0       71.0634             0             0   9.95712e-06     0.0833454      0.144405        112584        103384   2.98104e+06      0.152704
    0.0285285       1837.26       341.095         59060       40.8771      -4.11344             0       14.3327      -1.61805             0       33.1629       12.1288             0       73.7641             0             0   1.36651e-05     0.0847947      0.129519        112595        103377   2.99076e+06       0.15536
     0.029029       1871.19       341.045       60107.1       42.5087      -3.43603             0       13.6339      -1.82165             0       33.3217       12.3967             0       76.4489             0             0   1.79778e-05      0.086238      0.114692        112606        103371   3.00043e+06      0.158004
    0.0295295       1884.69       340.836       60784.6       44.2671      -2.17785             0       12.8738      -2.02806             0       33.9933       12.8799             0       78.8738             0             0   3.21126e-05     0.0875834       0.10082        112616        103364   3.00934e+06      0.160469
      0.03003       1897.45       340.622       61459.2       45.9662     -0.918708             0       12.1102      -2.23407             0       34.7017       13.3821             0       81.2684             0             0   4.67819e-05     0.0889171     0.0870654        112626        103358   3.01818e+06      0.162913
    0.0305305       1898.52       340.328         62086       46.7349      0.355396             0       11.2916      -2.43374             0       35.9874       14.1808             0       83.1882             0             0   6.98248e-05     0.0900676     0.0751475        112638        103352   3.02586e+06      0.165021
     0.031031       1899.53       340.029       62712.7       47.4815       1.65118             0       10.4684      -2.63226             0       37.3158       15.0082             0       85.0793             0             0   9.38234e-05     0.0911954     0.0634603        112649        103346   3.03344e+06      0.167087
    0.0315315       1899.77       339.655         63337       47.8951       3.27503             0       9.57658      -2.81339             0       39.2909       16.2706             0       86.5349             0             0    0.00013228     0.0919774     0.0552631        112660        103341   3.03934e+06       0.16852
     0.032032          1900       339.267       63929.8       48.0894       4.87866             0       8.68083      -2.99347             0       41.2143       17.5244             0       87.9613             0             0   0.000167165     0.0927341      0.047341        112670        103336   3.04511e+06      0.169906
    0.0325325          1900       338.678       64062.4       45.0769        6.1867             0       7.72824      -3.15819             0       42.3814       18.6521             0       88.9599             0             0   0.000149821     0.0931211     0.0434433        112681        103332   3.04902e+06      0.170615
     0.033033          1900       338.077       64158.6       42.0794       7.48559             0       6.77549      -3.32213             0       43.5305       19.7653             0       89.9214             0             0    0.00013008     0.0934957     0.0396847        112691        103328   3.05292e+06      0.171301
    0.0335335          1900       337.301         63740       39.2941       8.65502             0       5.82046      -3.47509             0       44.4264       20.6729             0       90.3564             0             0   7.64051e-05     0.0936927     0.0378955        112700        103326   3.05676e+06      0.171662
     0.034034          1900       336.525       63312.8       36.6915       9.84954             0       4.86718      -3.62659             0       45.3528       21.5879             0       90.7697             0             0   2.56059e-05     0.0938848      0.036144        112710        103323   3.06063e+06      0.172014
    0.0345345          1900       335.734       62769.1       36.5928       11.3879             0       3.93798      -3.75825             0       46.6985       22.6054             0       90.8855             0             0   1.42163e-05       0.09401     0.0349079        112727        103322   3.06496e+06      0.172244
     0.035035          1900       334.946       62226.3       36.4659        12.871             0       3.00914       -3.8888             0       47.9886       23.5954             0       90.9569             0             0   3.50501e-06     0.0941316     0.0337051        112743        103320   3.06926e+06      0.172467
    0.0355355          1900       334.194       61696.3       35.9642       13.6215             0         2.085      -4.00471             0       48.5391       24.2206             0         90.44             0             0   1.80568e-06     0.0942063     0.0329448        112762        103320   3.07306e+06      0.172603
     0.036036          1900       333.441       61161.1       35.4658       14.3713             0       1.16072      -4.11995             0       49.0528       24.8066             0       89.8657             0             0   2.20822e-07      0.094281     0.0321833        112781        103320   3.07676e+06       0.17274
    0.0365365          1900       332.688       60559.7       35.0114       15.1134             0      0.234669      -4.22654             0       49.0923       24.8883             0       88.5511             0             0   1.11402e-07     0.0943566      0.031408        112796        103321   3.07907e+06      0.172879
     0.037037          1900       331.929       59937.7        34.494       15.8128             0     -0.691806      -4.33229             0       49.1018       24.9127             0       87.1589             0             0   9.75672e-09     0.0944281      0.030675        112810        103323   3.08121e+06       0.17301
    0.0375375          1900       331.085       59057.3        33.188       15.9776             0      -1.62353      -4.42749             0       48.7361       24.2198             0       84.7958             0             0   5.39444e-09      0.094448     0.0304725        112820        103326   3.08106e+06      0.173046
     0.038038          1900       330.229       58147.8        31.876       16.1082             0      -2.55355      -4.52114             0       48.4135       23.5001             0       82.3459             0             0   1.33006e-09       0.09446     0.0303514        112831        103330   3.08077e+06      0.173068
    0.0385385          1900       329.231       56885.1        30.491       15.8231             0       -3.4628       -4.5961             0       48.6152       22.4532             0       78.8423             0             0   8.87479e-10     0.0943758     0.0312188        112837        103335   3.07864e+06      0.172914
     0.039039          1900       328.222       55596.4       29.0597       15.5147             0      -4.36725      -4.66814             0       48.8921       21.4178             0       75.2823             0             0   4.67965e-10     0.0942749     0.0322572        112842        103340   3.07635e+06      0.172729
    0.0395395          1900       327.076       54000.2       27.0823        14.932             0      -5.21499      -4.70581             0       50.0596       20.5166             0       71.0563             0             0   3.21095e-10     0.0939774     0.0353156        112845        103347   3.07216e+06      0.172184
      0.04004          1900       325.922       52382.9       25.0983       14.3137             0       -6.0537      -4.73967             0       51.3201       19.6491             0       66.7951             0             0    1.8075e-10     0.0936406     0.0387783        112848        103354   3.06786e+06      0.171567
    0.0405405          1900       324.667       50523.7       23.0394        13.285             0      -6.78857      -4.72973             0       53.6497       19.1685             0       62.1286             0             0   1.15433e-10     0.0928518     0.0468912        112850        103362   3.06237e+06      0.170122
     0.041041       1899.92       323.406       48644.2       20.9898       12.2325             0      -7.51049      -4.71502             0       56.0468       18.7228             0       57.4561             0             0   5.34027e-11     0.0920382     0.0552602        112851        103371   3.05679e+06      0.168631
    0.0415415        1898.9       322.075       46537.1       19.0445        10.913             0      -8.08742       -4.6469             0       59.2009       18.6685             0       52.7165             0             0   2.81746e-11     0.0909457     0.0664969        112848        103380    3.0502e+06      0.166629
     0.042042       1897.57       320.739       44413.6       17.1367       9.57373             0      -8.64871      -4.57348             0        62.392       18.6331             0       47.9889             0             0   4.87059e-12     0.0898943     0.0773109        112844        103389   3.04358e+06      0.164703
    0.0425425       1892.83       319.357       42110.6       15.6375       8.01913             0      -9.03959      -4.44223             0       65.9872       18.8029             0       43.3939             0             0   2.54962e-12     0.0892906     0.0835165        112832        103399   3.03659e+06      0.163597
     0.043043       1887.53       317.971       39798.8       14.1727       6.50437             0      -9.41442      -4.30508             0       69.6007       18.9659             0       38.8309             0             0   4.22429e-13     0.0887319     0.0892595        112819        103408   3.02961e+06      0.162573
    0.0435435       1876.27       316.537       37394.6       13.0738       5.41296             0      -9.61866      -4.10524             0       73.4089       19.0571             0       34.6078             0             0   3.54783e-13      0.088651     0.0900858        112797        103417   3.02276e+06      0.162425
     0.044044       1864.39        315.08       34964.7       12.0062       4.36212             0      -9.80735      -3.90023             0       77.2449       19.1256             0       30.4231             0             0    5.1078e-13     0.0885633     0.0909823        112774        103425   3.01596e+06      0.162265
    0.0445445       1846.12       313.388       32268.3        11.262       3.73166             0      -9.83491      -3.64159             0       81.3699       18.9579             0       26.6374             0             0   2.98453e-12     0.0884055     0.0926061        112746        103433   3.00959e+06      0.161975
     0.045045       1828.35        311.59       29429.5       10.6735       3.13136             0      -9.84824      -3.37835             0       85.5655       18.7737             0       22.8935             0             0   3.99508e-11     0.0882427     0.0942815        112717        103441   3.00333e+06      0.161677
    0.0455455        1815.6       308.729       25150.8       11.6592       2.83595             0      -9.71775      -3.06857             0        90.475        18.423             0        19.573             0             0   4.25675e-10     0.0880308     0.0964793        112679        103449   2.99819e+06      0.161289