#           y             T         TMean   TPrime2Mean           U_x           U_y           U_z       UMean_x       UMean_y       UMean_z UPrime2Mea... UPrime2Mea... UPrime2Mea... UPrime2Mea... UPrime2Mea... UPrime2Mea...            O2           H2O          C3H8             p         pMean   pPrime2Mean           CO2
  1.11022e-19       289.663        288.61      0.161844       58.8358   4.80801e-17             0       13.6904   1.97578e-18             0       67.1067   2.62594e-17             0    7.9888e-18             0             0      0.204224   3.20995e-13      0.112074        110704        103353   1.23124e+06   5.88123e-13
  0.000500501        289.72       288.619      0.161961       58.4863       0.21675             0       13.6475    0.00890704             0       66.4222       0.11838             0     0.0360144             0             0      0.201946   3.22226e-13      0.121978        110704        103353    1.2312e+06   5.90378e-13
     0.001001       289.777       288.628      0.162085       58.1359      0.433512             0       13.6046     0.0178148             0       65.7358      0.236787             0     0.0721324             0             0      0.199662   3.23507e-13      0.131909        110704        103353   1.23115e+06   5.92726e-13
    0.0015015       289.901       288.645      0.166146       57.3798      0.655605             0       13.5112     0.0271033             0       64.1216        0.3681             0      0.159959             0             0      0.194483   3.49918e-13      0.154426        110705        103353   1.23106e+06   6.41115e-13
     0.002002       290.025       288.662      0.170226       56.6239      0.877722             0       13.4178      0.036386             0       62.5074      0.499397             0      0.248012             0             0      0.189303   3.76586e-13      0.176947        110705        103353   1.23097e+06   6.89976e-13
    0.0025025       290.141       288.674      0.179051       55.8982        1.1056             0       13.3344     0.0442277             0       60.8894      0.626721             0      0.392659             0             0      0.183967   4.67217e-13      0.200147        110703        103353   1.23086e+06   8.56029e-13
     0.003003       290.257       288.686      0.187868       55.1738       1.33374             0       13.2511     0.0520615             0       59.2748      0.753895             0      0.537603             0             0       0.17864   5.57828e-13      0.223305        110702        103353   1.23075e+06   1.02204e-12
    0.0035035       290.331       288.692      0.195395       54.6412       1.60412             0       13.1953     0.0585969             0       58.2225      0.856154             0      0.731813             0             0      0.174887   6.45073e-13      0.239624        110697        103352   1.23063e+06   1.18189e-12
     0.004004       290.405       288.697      0.202874       54.1104        1.8748             0       13.1396     0.0651369             0       57.1747      0.958284             0      0.926346             0             0      0.171148   7.31951e-13      0.255879        110693        103352    1.2305e+06   1.34107e-12
    0.0045045       290.437       288.702      0.204414       53.7914       2.18373             0       13.0911     0.0722686             0       56.6805       1.04446             0       1.16096             0             0      0.169197   7.73316e-13      0.264362        110689        103352   1.23044e+06   1.41686e-12
   0.00500501       290.469       288.706      0.205863       53.4742       2.49288             0       13.0425     0.0794196             0       56.1903       1.13055             0       1.39596             0             0      0.167257   8.14603e-13      0.272793        110685        103351   1.23037e+06    1.4925e-12
   0.00550551       290.477       288.713      0.198355       53.3424       2.82434             0        12.986     0.0884835             0       56.0989       1.20793             0       1.66866             0             0      0.166516   8.48048e-13      0.276016        110681        103351   1.23037e+06   1.55378e-12
   0.00600601       290.484        288.72      0.190791       53.2124       3.15582             0       12.9295     0.0975538             0       56.0108       1.28514             0        1.9419             0             0      0.165785   8.81635e-13      0.279197        110676        103351   1.23038e+06   1.61532e-12
   0.00650651       290.481        288.73      0.178573       53.2343       3.48853             0       12.8694      0.107149             0       56.1893       1.34872             0        2.2598             0             0      0.165835   9.26843e-13      0.278977        110671        103350   1.23045e+06   1.69815e-12
   0.00700701       290.478       288.739      0.166411        53.258       3.82105             0       12.8093      0.116733             0       56.3699       1.41199             0       2.57848             0             0      0.165893   9.72748e-13      0.278724        110665        103350   1.23053e+06   1.78225e-12
   0.00750751       290.473       288.745      0.158214       53.4094       4.13973             0       12.7552      0.125483             0       56.6971       1.45403             0       2.95186             0             0      0.166489   1.06768e-12      0.276134        110660        103349   1.23068e+06   1.95619e-12
   0.00800801       290.469       288.752      0.150086        53.562       4.45821             0       12.7011      0.134216             0       57.0238       1.49586             0       3.32626             0             0      0.167095   1.16303e-12      0.273498        110655        103349   1.23084e+06   2.13089e-12
   0.00850851        290.47       288.753      0.146185        53.797       4.76383             0       12.6554      0.141843             0       57.3271        1.5252             0       3.76312             0             0      0.168361   1.28391e-12      0.267996        110650        103348    1.2311e+06   2.35237e-12
   0.00900901       290.472       288.755      0.142308       54.0326       5.06949             0       12.6098      0.149443             0        57.626       1.55474             0       4.20111             0             0      0.169632   1.40531e-12      0.262467        110644        103348   1.23136e+06   2.57479e-12
   0.00950951       290.479       288.755      0.139697       54.2955       5.37726             0       12.5727      0.155568             0       57.6869       1.59573             0       4.70088             0             0       0.17125   1.55489e-12      0.255433        110639        103347   1.23174e+06   2.84885e-12
      0.01001       290.486       288.755      0.137098        54.558       5.68533             0       12.5358      0.161657             0       57.7408       1.63715             0       5.20177             0             0       0.17286   1.70278e-12      0.248431        110634        103347   1.23212e+06    3.1198e-12
    0.0105105       290.491       288.754      0.135072       54.8033       6.00822             0       12.5073      0.165979             0       57.4518       1.69964             0       5.75763             0             0      0.174109   1.76774e-12      0.243004        110630        103346   1.23259e+06   3.23883e-12
     0.011011       290.496       288.753      0.133049       55.0473       6.33127             0       12.4791      0.170261             0       57.1554       1.76236             0       6.31452             0             0      0.175348   1.82924e-12      0.237616        110626        103346   1.23307e+06   3.35151e-12
    0.0115115       290.498       288.752       0.13119       55.2343       6.66115             0       12.4569      0.172724             0       56.5308       1.83523             0       6.91758             0             0      0.176185   1.73691e-12      0.233977        110624        103345   1.23363e+06   3.18234e-12
     0.012012         290.5        288.75      0.129337       55.4189       6.99102             0       12.4349      0.175149             0       55.8991       1.90819             0       7.52141             0             0       0.17702   1.64291e-12      0.230344        110622        103344   1.23418e+06   3.01013e-12
    0.0125125       290.505       288.748      0.127745       55.5081       7.32099             0       12.4144      0.176035             0       54.9816       1.98489             0        8.1568             0             0      0.177796    1.4817e-12      0.226974        110622        103344   1.23476e+06   2.71474e-12
     0.013013        290.51       288.746      0.126157       55.5945       7.65071             0       12.3938      0.176923             0       54.0571       2.06235             0       8.79207             0             0      0.178575   1.32086e-12      0.223584        110622        103343   1.23533e+06   2.42006e-12
    0.0135135       290.516       288.745        0.1247       55.5744        7.9708             0       12.3665      0.177899             0       52.8695       2.16818             0       9.42248             0             0      0.179522   1.17442e-12       0.21947        110623        103342   1.23592e+06   2.15175e-12
     0.014014       290.521       288.744      0.123245       55.5514       8.29022             0       12.3387      0.178956             0       51.6754       2.27555             0       10.0512             0             0      0.180472   1.02927e-12      0.215338        110624        103342   1.23651e+06   1.88582e-12
    0.0145145       290.525       288.743      0.121852       55.4266       8.58647             0        12.293      0.182792             0       50.2527       2.43621             0       10.6216             0             0      0.181554   9.29164e-13      0.210632        110626        103341   1.23707e+06    1.7024e-12
     0.015015       290.529       288.743      0.120468       55.2991       8.88172             0       12.2466      0.186722             0        48.826       2.59769             0       11.1896             0             0      0.182634   8.29107e-13      0.205938        110627        103340   1.23763e+06   1.51908e-12
    0.0155155       290.535       288.743      0.119413       55.0802       9.14443             0       12.1778      0.193708             0       47.2746       2.78564             0       11.6777             0             0      0.183621    7.3074e-13      0.201645        110629        103339   1.23809e+06   1.33885e-12
     0.016016       290.541       288.743       0.11837       54.8588       9.40587             0       12.1084      0.200672             0       45.7227       2.97233             0        12.164             0             0      0.184602   6.32659e-13      0.197382        110631        103339   1.23855e+06   1.15915e-12
    0.0165165       290.552       288.743      0.117708       54.5618       9.62878             0       12.0233      0.207006             0       44.1569       3.12098             0       12.5934             0             0      0.185374   5.43206e-13      0.194026        110633        103338   1.23892e+06   9.95254e-13
     0.017017       290.562       288.743      0.117056       54.2626       9.85047             0        11.938       0.21321             0        42.592       3.26696             0        13.021             0             0      0.186137   4.54347e-13      0.190706        110635        103338   1.23929e+06   8.32449e-13
    0.0175175       290.577       288.743      0.116673       53.8988       10.0373             0       11.8443      0.215706             0       41.0528       3.33698             0       13.3954             0             0      0.186659   3.82373e-13      0.188439        110637        103337   1.23954e+06   7.00579e-13
     0.018018       290.592       288.743      0.116289       53.5329       10.2229             0       11.7502      0.218085             0       39.5168       3.40456             0       13.7662             0             0      0.187174    3.1107e-13      0.186199        110639        103337   1.23979e+06   5.69938e-13
    0.0185185       290.609       288.742      0.115842       53.1087       10.3789             0        11.649      0.217358             0       38.0666       3.40693             0       14.0424             0             0      0.187525   2.57719e-13       0.18467        110640        103337   1.23989e+06    4.7219e-13
     0.019019       290.626       288.742      0.115373       52.6823       10.5336             0       11.5476      0.216549             0       36.6265       3.40775             0       14.3135             0             0      0.187875   2.05012e-13       0.18315        110641        103336   1.23998e+06   3.75619e-13
    0.0195195       290.645       288.741      0.114343       52.2026       10.6587             0       11.4425      0.213687             0        35.444       3.36925             0       14.4551             0             0      0.188171   1.68571e-13      0.181864        110642        103336   1.23994e+06   3.08854e-13
      0.02002       290.663       288.741      0.113261       51.7208       10.7824             0       11.3376      0.210721             0       34.2791        3.3297             0       14.5912             0             0      0.188466   1.32629e-13       0.18058        110642        103336   1.23988e+06   2.43002e-13
    0.0205205       290.678       288.741      0.110946       51.1896       10.8725             0       11.2358      0.205273             0       33.5375       3.26519             0       14.5943             0             0      0.188746   1.08649e-13      0.179365        110642        103336   1.23967e+06   1.99066e-13
     0.021021       290.692       288.742       0.10858       50.6568       10.9607             0       11.1342      0.199729             0       32.8157       3.19998             0       14.5916             0             0      0.189024   8.50016e-14      0.178153        110643        103336   1.23944e+06   1.55739e-13
    0.0215215       290.701       288.743      0.105082       50.0869       11.0045             0       11.0372       0.19199             0        32.546       3.11888             0       14.4566             0             0      0.189284   6.89266e-14      0.177026        110643        103336   1.23907e+06   1.26286e-13
     0.022022       290.711       288.744      0.101569       49.5159       11.0457             0       10.9403      0.184224             0       32.2935       3.03772             0       14.3154             0             0      0.189543   5.31343e-14      0.175898        110643        103336   1.23868e+06    9.7352e-14
    0.0225225       290.716       288.746      0.097732       48.9223       11.0291             0        10.844      0.175879             0       32.4143       2.95513             0       14.0403             0             0      0.189807   4.34863e-14       0.17475        110643        103337   1.23818e+06   7.96751e-14
     0.023023       290.721       288.748     0.0939115       48.3292        11.009             0       10.7477      0.167561             0       32.5482       2.87308             0       13.7594             0             0      0.190071   3.40367e-14      0.173605        110643        103337   1.23767e+06   6.23616e-14
    0.0235235       290.719        288.75      0.090433       47.7438       10.9145             0       10.6501       0.15982             0       32.9525       2.80224             0       13.3568             0             0      0.190325   2.87008e-14        0.1725        110644        103338   1.23705e+06   5.25852e-14
     0.024024       290.716       288.752     0.0869885       47.1612       10.8148             0       10.5524      0.152125             0       33.3638       2.73231             0       12.9492             0             0      0.190577   2.34556e-14      0.171402        110645        103338   1.23642e+06    4.2975e-14
    0.0245245       290.696       288.754     0.0842169       46.6334       10.6135             0       10.4547      0.145356             0       33.9145       2.68068             0       12.4449             0             0      0.190799   2.00102e-14      0.170439        110646        103339   1.23566e+06   3.66624e-14
     0.025025       290.676       288.756     0.0814697       46.1078       10.4085             0       10.3573       0.13865             0       34.4662       2.63041             0        11.937             0             0      0.191019   1.65919e-14       0.16948        110647        103339    1.2349e+06   3.03994e-14
    0.0255255       290.635       288.759     0.0791852        45.622       10.1344             0       10.2643       0.13315             0       35.0373       2.60591             0       11.3632             0             0      0.191222   1.36884e-14      0.168601        110648        103340   1.23405e+06   2.50797e-14
     0.026026       290.594       288.763     0.0769099       45.1337       9.86195             0        10.172      0.127735             0       35.6082        2.5831             0       10.7877             0             0      0.191417   1.08312e-14      0.167752        110649        103341    1.2332e+06   1.98447e-14
    0.0265265       290.547       288.767     0.0748027       44.6001       9.61969             0       10.0904      0.123863             0       36.1742       2.59117             0       10.1815             0             0      0.191484   8.81701e-15      0.167459        110649        103342   1.23229e+06   1.61544e-14
     0.027027         290.5       288.772     0.0727126       44.0607       9.38264             0       10.0094      0.120066             0       36.7347       2.60042             0       9.57545             0             0      0.191538   6.84961e-15      0.167228        110649        103342   1.23138e+06   1.25498e-14
    0.0275275       290.457       288.779     0.0709238        43.421       9.23677             0       9.93908      0.117579             0          37.2       2.63026             0       8.97219             0             0      0.191343   5.70113e-15      0.168074        110649        103343   1.23046e+06   1.04455e-14
     0.028028       290.415       288.787      0.069172       42.7773       9.09482             0       9.86919      0.115141             0       37.6482       2.65988             0        8.3706             0             0       0.19114   4.57304e-15      0.168956        110648        103344   1.22955e+06   8.37866e-15
    0.0285285       290.377       288.795     0.0680461       42.0671       9.01882             0       9.80666      0.113527             0       37.8093       2.68564             0        7.7972             0             0      0.190799   3.78864e-15       0.17044        110647        103344   1.22866e+06   6.94149e-15
     0.029029        290.34       288.802     0.0669867        41.359       8.94165             0        9.7447       0.11198             0       37.9494       2.70961             0       7.22682             0             0      0.190462   3.02314e-15      0.171902        110645        103345   1.22778e+06   5.53895e-15
    0.0295295       290.308       288.807     0.0670078       40.6852       8.84561             0         9.692      0.111533             0       37.7485       2.70454             0       6.70553             0             0      0.190207   2.56467e-15       0.17301        110643        103345   1.22695e+06   4.69895e-15
      0.03003       290.278       288.812     0.0670926       40.0192       8.74429             0       9.64008      0.111183             0       37.5313       2.69718             0       6.18844             0             0      0.189962   2.12141e-15      0.174078        110640        103346   1.22612e+06   3.88682e-15
    0.0305305       290.253       288.814     0.0681735       39.4756       8.56028             0        9.6004       0.11236             0       37.0596        2.6538             0       5.73732             0             0      0.189864   1.91654e-15      0.174503        110636        103346   1.22536e+06   3.51147e-15
     0.031031        290.23       288.815     0.0692842       38.9402       8.37143             0       9.56151      0.113612             0       36.5806       2.60892             0       5.29095             0             0       0.18977   1.71887e-15      0.174915        110632        103347    1.2246e+06   3.14929e-15
    0.0315315       290.215       288.814     0.0708466       38.5279       8.10934             0       9.53449      0.115997             0        35.991       2.54125             0       4.91644             0             0      0.189719   1.63004e-15      0.175134        110627        103347   1.22396e+06   2.98653e-15
     0.032032       290.202       288.814     0.0724281       38.1189       7.84627             0       9.50793       0.11839             0        35.402       2.47286             0       4.54633             0             0      0.189668   1.54516e-15      0.175356        110622        103348   1.22333e+06   2.83103e-15
    0.0325325       290.202       288.812     0.0742902       37.7582       7.56887             0        9.4881      0.120897             0       34.8205       2.39384             0       4.24075             0             0      0.189606   1.51825e-15      0.175626        110616        103348   1.22277e+06   2.78172e-15
     0.033033       290.203       288.811     0.0761732       37.3967       7.29341             0       9.46816      0.123344             0       34.2397       2.31417             0       3.93873             0             0      0.189543   1.49329e-15      0.175899        110611        103349   1.22221e+06   2.73598e-15
    0.0335335       290.217       288.809     0.0783524       37.0222       7.04553             0       9.44673      0.124944             0        33.668       2.22537             0       3.68705             0             0      0.189473   1.49587e-15      0.176205        110605        103349    1.2217e+06   2.74071e-15
     0.034034       290.232       288.807     0.0805156       36.6475       6.79897             0       9.42491      0.126457             0       33.0954       2.13583             0       3.43803             0             0      0.189401   1.50041e-15       0.17652        110600        103349    1.2212e+06   2.74903e-15
    0.0345345       290.264       288.803     0.0824604       36.2711        6.5704             0        9.3977      0.126796             0       32.5108       2.03623             0       3.22554             0             0        0.1893   1.53173e-15      0.176955        110595        103349   1.22076e+06   2.80642e-15
     0.035035       290.297         288.8     0.0843512       35.8977       6.34115             0       9.37023      0.127047             0       31.9261       1.93602             0       3.01503             0             0      0.189202   1.56363e-15      0.177382        110591        103350   1.22032e+06   2.86487e-15
    0.0355355       290.333       288.795     0.0855242       35.5665       6.10293             0       9.33927      0.126123             0        31.341       1.82764             0       2.83078             0             0      0.189131   1.60317e-15      0.177693        110588        103350   1.21993e+06   2.93731e-15
     0.036036       290.368        288.79     0.0866758       35.2404        5.8631             0       9.30829      0.125121             0       30.7571        1.7189             0       2.64798             0             0       0.18907   1.64162e-15      0.177957        110585        103350   1.21953e+06   3.00775e-15
    0.0365365       290.392       288.784     0.0875511       34.9809       5.60247             0       9.27696      0.123104             0       30.1888       1.60558             0       2.48402             0             0       0.18915   1.66596e-15      0.177611        110584        103350   1.21923e+06   3.05235e-15
     0.037037       290.415       288.777     0.0884565       34.7254       5.34065             0       9.24573      0.121021             0       29.6231       1.49228             0       2.32111             0             0      0.189256   1.69125e-15      0.177146        110583        103350   1.21893e+06   3.09868e-15
    0.0375375       290.428       288.772       0.08974        34.521       5.06381             0       9.21575      0.118109             0       29.0886       1.37917             0       2.17134             0             0      0.189703   1.72831e-15      0.175206        110584        103350   1.21873e+06   3.16659e-15
     0.038038        290.44       288.766     0.0910482       34.3188         4.787             0       9.18585      0.115148             0        28.557        1.2668             0       2.02229             0             0      0.190156   1.76585e-15      0.173234        110585        103350   1.21854e+06   3.23536e-15
    0.0385385        290.44       288.763     0.0926577       34.1429       4.51051             0       9.15693       0.11158             0       28.0599       1.16327             0       1.88218             0             0      0.190697   1.80901e-15      0.170881        110588        103351   1.21845e+06   3.31445e-15
     0.039039        290.44       288.759     0.0942579       33.9691       4.23455             0       9.12802      0.107983             0       27.5661       1.06119             0       1.74256             0             0      0.191213   1.85101e-15      0.168638        110591        103351   1.21838e+06    3.3914e-15
    0.0395395       290.431       288.757      0.095748       33.8212       3.96482             0       9.09935      0.104058             0       27.1126      0.976309             0       1.60893             0             0       0.19143   1.87924e-15      0.167696        110594        103351   1.21843e+06   3.44311e-15
      0.04004       290.421       288.754     0.0972258       33.6766       3.69548             0       9.07072       0.10011             0       26.6639      0.893068             0       1.47577             0             0       0.19163   1.90724e-15      0.166824        110598        103351   1.21848e+06   3.49441e-15
    0.0405405       290.396       288.753     0.0985619       33.5713       3.43046             0       9.04245     0.0959115             0       26.2705       0.82872             0       1.34797             0             0      0.191643   1.93263e-15      0.166768        110602        103351   1.21864e+06   3.54094e-15
     0.041041        290.37       288.752     0.0998625       33.4692       3.16513             0       9.01431     0.0916722             0       25.8826      0.765361             0        1.2208             0             0      0.191654   1.95769e-15      0.166724        110606        103351   1.21881e+06   3.58685e-15
    0.0415415        290.33       288.751      0.100766       33.4031       2.89624             0       8.98749     0.0869754             0       25.5567      0.713082             0       1.10061             0             0      0.191632     1.979e-15      0.166817        110611        103351   1.21906e+06   3.62589e-15
     0.042042        290.29        288.75      0.101673       33.3388       2.62787             0       8.96082     0.0822184             0       25.2352      0.660955             0      0.981219             0             0      0.191614   1.99938e-15      0.166896        110615        103351   1.21933e+06   3.66325e-15
    0.0425425       290.246       288.749      0.102617        33.294       2.36526             0       8.93571     0.0768037             0       24.9623      0.610485             0      0.870553             0             0       0.19163   2.00972e-15      0.166828        110619        103352   1.21967e+06   3.68219e-15
     0.043043       290.203       288.749      0.103655       33.2556       2.10554             0       8.91052      0.071317             0       24.6903      0.559622             0      0.760803             0             0      0.191645    2.0195e-15      0.166761        110623        103352      1.22e+06    3.7001e-15
    0.0435435       290.161        288.75      0.105697       33.2834       1.87663             0       8.88455      0.065064             0        24.428      0.504576             0      0.660801             0             0      0.191657   2.02326e-15      0.166708        110626        103352   1.22034e+06   3.70698e-15
     0.044044       290.122       288.751      0.107843       33.3214       1.65202             0       8.85796     0.0587387             0       24.1632      0.449436             0      0.561789             0             0      0.191666   2.02706e-15      0.166669        110629        103352   1.22068e+06   3.71394e-15
    0.0445445       290.105       288.752      0.111064       33.4661       1.47198             0       8.82497     0.0516636             0       23.8733      0.393331             0      0.473029             0             0      0.191639   2.03129e-15      0.166789        110632        103352   1.22101e+06    3.7217e-15
     0.045045       290.092       288.754      0.114339       33.6124        1.2965             0       8.79028     0.0445779             0       23.5807      0.338266             0       0.38548             0             0      0.191598   2.03649e-15      0.166967        110634        103352   1.22133e+06   3.73122e-15
    0.0455455       290.116       288.756      0.118159       33.7751       1.16726             0        8.7384     0.0373856             0       23.2602      0.293727             0      0.310179             0             0       0.19142   2.05146e-15      0.167739        110636        103352   1.22163e+06   3.75866e-15