#           y             T         TMean   TPrime2Mean           U_x           U_y           U_z       UMean_x       UMean_y       UMean_z UPrime2Mea... UPrime2Mea... UPrime2Mea... UPrime2Mea... UPrime2Mea... UPrime2Mea...            O2           H2O          C3H8             p         pMean   pPrime2Mean           CO2
  1.11022e-19       301.001       288.476       2.25329       42.6434  -2.44497e-18             0       18.3202   5.25272e-18             0       63.4311  -3.07379e-17             0   2.49347e-17             0             0      0.226617    0.00124459     0.0019315        111777        103532   2.26876e+06    0.00228032
  0.000500501       322.897       288.871       27.6414       42.9959    -0.0110222             0       18.3331     0.0236798             0       63.7624      -0.13857             0      0.112408             0             0       0.22296    0.00270659    0.00282735        111789        103532   2.26898e+06    0.00495898
     0.001001       344.929        289.27       54.2183       43.3512    -0.0220731             0        18.346     0.0473618             0       64.0973     -0.277093             0      0.225057             0             0       0.21929    0.00417397    0.00372305        111800        103532   2.26921e+06    0.00764749
    0.0015015       434.672        291.59       673.976       45.1007    -0.0474511             0        18.396      0.072133             0       66.2982     -0.392495             0      0.457862             0             0      0.209305    0.00832254    0.00454833        111816        103531   2.26936e+06     0.0152484
     0.002002       524.901       293.943       1339.52       46.8597     -0.071797             0       18.4463     0.0969374             0       68.5227      -0.50693             0      0.691174             0             0      0.199298     0.0124819     0.0053648        111832        103531   2.26951e+06     0.0228692
    0.0025025       736.309       304.493       13406.9       50.9851      0.160837             0       18.5528      0.130018             0       76.6286     -0.380462             0       1.05083             0             0      0.183434      0.019335    0.00398885        111836        103530   2.27006e+06     0.0354253
     0.003003       947.913       315.062       25536.7       55.1214       0.39369             0       18.6596      0.163134             0       84.7899     -0.252054             0       1.41125             0             0      0.167515     0.0262116     0.0026133        111840        103530    2.2706e+06     0.0480246
    0.0035035       1191.97       328.797       48015.6       61.0595      0.662928             0       18.8202      0.201918             0       102.114      0.197878             0       1.89877             0             0      0.142338     0.0370032    0.00130538        111841        103530   2.27092e+06     0.0677967
     0.004004       1435.41       342.476       70432.5       67.0054      0.931028             0       18.9808      0.240738             0        119.48      0.649616             0       2.38732             0             0      0.117065     0.0478337   1.10736e-05        111841        103529   2.27123e+06     0.0876402
    0.0045045       1602.26       349.406       85155.2       73.9219       1.05806             0       19.1395      0.283879             0       142.131       1.32536             0       3.00421             0             0     0.0800034     0.0634931   0.000403938        111840        103528   2.27183e+06      0.116331
   0.00500501       1767.98       356.285       99759.4       80.8173       1.18294             0       19.2975      0.326974             0       164.729       2.00126             0        3.6222             0             0     0.0430969     0.0790773   0.000895549        111839        103528   2.27243e+06      0.144884
   0.00550551       1822.01       358.077        102643       85.6193       1.09517             0       19.3846      0.365436             0       182.143       2.69353             0       4.34799             0             0     0.0215479     0.0872045      0.011163        111835        103527   2.27302e+06      0.159775
   0.00600601       1875.04        359.84        105456       90.3797       1.00499             0       19.4705      0.403702             0       199.427       3.37727             0       5.07375             0             0   0.000255978     0.0952087     0.0215764        111830        103526    2.2736e+06       0.17444
   0.00650651       1846.05       359.156        102540       91.7068      0.716736             0       19.4614      0.425896             0       205.997       3.35967             0       5.79624             0             0   0.000127391      0.093079     0.0440037        111822        103526    2.2742e+06      0.170538
   0.00700701       1817.04       358.462         99609       93.0152      0.430251             0       19.4517      0.447935             0       212.475       3.33568             0       6.51938             0             0   5.99083e-07     0.0909468     0.0664483        111814        103525   2.27479e+06      0.166632
   0.00750751       1786.24       357.128       95648.2       93.0074      0.268033             0       19.4004      0.459018             0       212.492       2.86286             0       7.28812             0             0   2.97461e-07     0.0886429     0.0901108        111804        103524   2.27539e+06       0.16241
   0.00800801       1755.49       355.794       91697.8       92.9902      0.107775             0       19.3491      0.470125             0       212.466       2.38934             0       8.05906             0             0     6.595e-10     0.0863433       0.11373        111793        103523   2.27599e+06      0.158197
   0.00850851          1728       354.547       88386.6       92.3989     0.0680326             0        19.294      0.482638             0       209.784       1.87308             0        8.9649             0             0   3.27017e-10     0.0843031      0.134688        111781        103522   2.27682e+06      0.154459
   0.00900901       1700.51       353.312       85097.8       91.8017      0.031463             0       19.2386      0.495318             0       207.093       1.35867             0       9.87297             0             0   5.13158e-13     0.0822664      0.155611        111768        103521   2.27765e+06      0.150727
   0.00950951       1672.68       352.744       83031.2       90.8812      0.167969             0       19.1653      0.517145             0       203.873      0.945468             0       10.9025             0             0   2.54178e-13     0.0804156      0.174628        111755        103520   2.27885e+06      0.147336
      0.01001        1644.8       352.189       80990.6       89.9553      0.303134             0       19.0909      0.539203             0       200.648      0.537348             0       11.9337             0             0   3.74737e-16     0.0785673       0.19362        111742        103519   2.28006e+06       0.14395
    0.0105105       1614.29       352.276       80221.4        88.767      0.372579             0       18.9641      0.572618             0       197.117      0.378221             0       13.0428             0             0   1.85463e-16     0.0768358      0.211414        111731        103518   2.28143e+06      0.140778
     0.011011       1583.79        352.36       79459.4       87.5708       0.43985             0       18.8356      0.606156             0       193.557      0.224702             0       14.1524             0             0   3.48105e-19     0.0751104      0.229146        111720        103516   2.28281e+06      0.137616
    0.0115115        1554.1       352.312       79017.4       86.0168      0.410508             0       18.6306      0.645128             0       188.757      0.320428             0       15.2816             0             0   1.72145e-19     0.0736521      0.244134        111711        103515   2.28459e+06      0.134944
     0.012012       1524.71       352.254       78570.1       84.4508      0.382655             0       18.4237      0.684058             0       183.946      0.417464             0       16.4108             0             0   4.03129e-22     0.0722119      0.258935        111701        103513   2.28638e+06      0.132306
    0.0125125       1507.95       351.727         77911       82.3925       0.41531             0       18.1393      0.721299             0       178.695      0.567774             0       17.5394             0             0   1.99128e-22     0.0715076      0.266172        111696        103511   2.28836e+06      0.131015
     0.013013       1491.78         351.2       77273.3       80.3397      0.448768             0       17.8533      0.758342             0       173.495      0.713579             0       18.6673             0             0   4.25048e-25     0.0708325      0.273108        111692        103510   2.29035e+06      0.129778
    0.0135135       1498.28       350.682       77438.6       78.4937      0.512274             0       17.5078      0.787945             0       170.192      0.690629             0        19.771             0             0   2.09766e-25     0.0712517      0.268795        111693        103508   2.29255e+06      0.130546
     0.014014       1505.43       350.185       77653.3       76.6774      0.572792             0       17.1621      0.817186             0        167.02      0.666658             0       20.8738             0             0   5.05755e-28     0.0716989      0.264194        111695        103506   2.29476e+06      0.131366
    0.0145145       1535.55       350.382       79580.7       75.8909      0.529553             0       16.8133      0.833857             0       168.412      0.607254             0        21.948             0             0    2.4944e-28     0.0731147       0.24964        111698        103504   2.29732e+06       0.13396
     0.015015       1566.15       350.599       81543.8       75.1339      0.482661             0       16.4651      0.849885             0       169.907      0.542523             0       23.0209             0             0   8.02739e-31     0.0745513      0.234873        111701        103503   2.29988e+06      0.136592
    0.0155155       1612.49       351.432       84662.2       75.3317      0.317654             0        16.139      0.845131             0       174.725      0.305519             0       24.0543             0             0   3.95345e-31     0.0766574      0.213232        111705        103501   2.30279e+06      0.140451
     0.016016       1658.88       352.261       87767.2       75.5353      0.151778             0       15.8129      0.839837             0       179.523     0.0660111             0       25.0875             0             0    9.7086e-34     0.0787678      0.191545        111708        103499   2.30568e+06      0.144317
    0.0165165       1706.98       353.002       90469.9       75.9152    -0.0403867             0       15.4894      0.818184             0       183.718     -0.249221             0       26.1129             0             0   4.77572e-34     0.0810107      0.168502        111712        103498   2.30848e+06      0.148427
     0.017017       1754.58       353.724       93122.6       76.2863       -0.2286             0       15.1658      0.796206             0       187.822     -0.568473             0       27.1385             0             0   1.03763e-36     0.0832326      0.145675        111716        103496   2.31127e+06      0.152498
    0.0175175       1787.93       353.921       94351.9        76.406     -0.304542             0       14.8377      0.764982             0       189.317      -1.00197             0       28.1703             0             0    5.0987e-37     0.0848558      0.129001        111721        103495   2.31401e+06      0.155472
     0.018018       1820.71       354.106       95544.9       76.5405      -0.37712             0       14.5097      0.733809             0       190.723      -1.43285             0       29.2019             0             0   1.08765e-39     0.0864549      0.112575        111725        103493   2.31675e+06      0.158401
    0.0185185       1838.05       353.954       95762.8       77.0706      -0.35963             0       14.1866      0.704026             0       189.748      -1.79375             0       30.2298             0             0   5.33903e-40     0.0874062      0.102803        111729        103492   2.31949e+06      0.160145
     0.019019       1855.08       353.796       95963.6       77.6247     -0.342806             0       13.8636       0.67425             0       188.688      -2.15468             0       31.2586             0             0   1.17813e-42      0.088345      0.093161        111732        103490   2.32222e+06      0.161864
    0.0195195       1864.46       353.485       95731.4       78.7889     -0.342832             0        13.546      0.644654             0        185.45      -2.51637             0       32.3088             0             0   5.77739e-43      0.088964     0.0868017        111733        103489   2.32502e+06      0.162999
      0.02002       1873.66       353.163       95476.3       79.9326     -0.341634             0       13.2288      0.615038             0       182.168       -2.8781             0       33.3623             0             0   1.33818e-45     0.0895753     0.0805229        111734        103488    2.3278e+06      0.164119
    0.0205205       1878.58        352.59       94672.4       80.5835      -0.31104             0       12.9192      0.584961             0       177.823      -3.24108             0       34.4948             0             0   6.55539e-46     0.0899985     0.0761741        111733        103487   2.33034e+06      0.164894
     0.021021       1883.41       351.993       93828.3       81.1872     -0.281678             0       12.6096       0.55486             0       173.463      -3.60443             0       35.6293             0             0   1.53188e-48      0.090417     0.0718733        111732        103485   2.33286e+06      0.165661
    0.0215215        1885.8       350.838       92068.2       80.7152     -0.280425             0       12.3002      0.524226             0       168.741      -3.97627             0       36.8096             0             0   7.49246e-49      0.090729     0.0686646        111729        103484   2.33508e+06      0.166233
     0.022022       1888.09       349.668       90284.7       80.1918     -0.286905             0       11.9898      0.493709             0       163.945      -4.33657             0       37.9862             0             0   1.03491e-51     0.0910376      0.065492        111726        103483    2.3373e+06      0.166798
    0.0225225       1888.07       348.156       87994.3       78.5517     -0.461405             0       11.6594       0.46574             0       157.543      -4.44601             0       39.0827             0             0   6.51216e-52     0.0912699     0.0631039        111722        103482   2.33954e+06      0.167223
     0.023023        1887.9       346.641       85696.5       76.8435     -0.649467             0       11.3279      0.437609             0       151.046       -4.5514             0        40.175             0             0   2.79486e-52     0.0915011     0.0607264        111718        103481   2.34176e+06      0.167647
    0.0235235       1884.93       345.068       83243.6       73.7218      -1.11879             0       10.9722      0.406116             0       142.564      -4.57278             0       41.1796             0             0   1.55865e-52     0.0917109     0.0585718        111715        103480   2.34341e+06      0.168031
     0.024024       1881.88       343.487         80774       70.5611      -1.58532             0       10.6159      0.374335             0       134.022      -4.58829             0       42.1742             0             0   2.89098e-52     0.0919217     0.0564061        111711        103479   2.34504e+06      0.168418
    0.0245245       1877.08        341.76       77972.5       66.6249      -1.99639             0       10.2482      0.336848             0        124.31      -4.48755             0       42.9721             0             0   5.51662e-51      0.092154     0.0540212        111709        103479    2.3463e+06      0.168843
     0.025025       1872.34       340.008       75149.3       62.7888      -2.39413             0       9.88152      0.299233             0       114.672      -4.37768             0       43.7579             0             0   7.32136e-50     0.0923824     0.0516774        111706        103479    2.3475e+06      0.169262
    0.0255255       1868.79       337.786       71914.7       60.8531      -2.53872             0       9.53573      0.259184             0       106.463      -4.09431             0       44.3126             0             0   1.32783e-48     0.0925347     0.0501132        111705        103478   2.34744e+06      0.169541
     0.026026       1865.34       335.578         68724       59.0998       -2.6832             0       9.19276      0.218882             0       98.4655      -3.82257             0       44.8582             0             0   2.51857e-47      0.092677     0.0486524        111704        103478   2.34737e+06      0.169802
    0.0265265       1863.74       333.602       66335.5       60.6699      -2.82571             0       8.90132      0.173951             0       94.3137      -3.76301             0       45.2368             0             0   4.61119e-46     0.0926356     0.0490774        111704        103478   2.34697e+06      0.169726
     0.027027       1862.19       331.681       64018.9        62.307      -2.96681             0       8.61392      0.128931             0       90.3914      -3.71396             0        45.607             0             0   6.02768e-45     0.0925905     0.0495409        111704        103478   2.34658e+06      0.169643
    0.0275275       1861.62       330.725       62961.3       65.1171      -3.08326             0       8.39708     0.0823418             0       90.4882      -3.84905             0       45.8286             0             0   1.01475e-43     0.0924797     0.0506784        111705        103478   2.34633e+06       0.16944
     0.028028       1860.97       329.796       61921.5       67.8431      -3.19792             0       8.18353     0.0356989             0       90.7133       -3.9938             0       46.0462             0             0     2.032e-42     0.0923736     0.0517673        111706        103478   2.34601e+06      0.169246
    0.0285285       1859.16       329.321       61180.3       69.1505      -3.28245             0        8.0255    -0.0118564             0       93.1014      -4.30152             0        46.197             0             0   3.48967e-41     0.0923473     0.0520372        111709        103479   2.34438e+06      0.169197
     0.029029       1857.24       328.861       60458.4       70.3753      -3.37312             0        7.8684    -0.0593051             0       95.4553      -4.60846             0       46.3391             0             0   6.84368e-40     0.0923273     0.0522429        111712        103479   2.34271e+06      0.169161
    0.0295295       1853.58        328.63       60049.4       70.2586      -3.56368             0       7.72637     -0.105022             0       97.2522      -4.90258             0       46.3391             0             0   1.13484e-38      0.092409     0.0514046        111717        103480   2.34047e+06       0.16931
      0.03003       1849.99        328.41       59661.5       70.1407      -3.75614             0       7.58491     -0.150592             0        99.031       -5.1994             0       46.3234             0             0   2.13304e-37     0.0924957     0.0505141        111723        103480    2.3382e+06      0.169469
    0.0305305       1847.29       328.347       59602.7        70.004      -3.97856             0       7.45211     -0.193874             0       100.525      -5.53829             0        46.061             0             0   3.41217e-36     0.0926621     0.0488059        111733        103481   2.33543e+06      0.169774
     0.031031        1844.7       328.292       59558.7       69.8631      -4.20438             0       7.31968     -0.236642             0       102.006      -5.87415             0       45.7796             0             0   6.07509e-35     0.0928339     0.0470424        111742        103482   2.33266e+06      0.170089
    0.0315315       1843.58       328.347       59738.4       69.6589      -4.48172             0        7.1926     -0.271649             0       103.302      -6.16413             0       45.2095             0             0   9.37174e-34     0.0930874     0.0444406        111755        103483   2.32991e+06      0.170554
     0.032032       1842.59       328.404       59920.7       69.4511      -4.76206             0       7.06629     -0.305874             0       104.561      -6.44943             0       44.6196             0             0   1.56918e-32     0.0933468     0.0417785        111767        103484   2.32715e+06      0.171029
    0.0325325       1843.64       328.475       60139.6        69.191      -5.08617             0       6.95115     -0.328661             0       105.286      -6.66618             0       43.7398             0             0   2.33416e-31     0.0936921      0.038234        111780        103486   2.32419e+06      0.171661
     0.033033       1844.89       328.541       60349.8       68.9375       -5.4102             0       6.83803     -0.350646             0       105.987       -6.8807             0       42.8445             0             0   3.18616e-30     0.0940413     0.0346495        111794        103487   2.32124e+06      0.172301
    0.0335335       1849.17       328.535       60436.1       68.7772      -5.73319             0       6.75357     -0.361276             0       106.353      -7.06381             0       41.7305             0             0   4.48436e-29     0.0944455     0.0305001        111806        103489   2.31835e+06      0.173042
     0.034034       1853.55       328.524       60511.8       68.6197      -6.05546             0       6.67182     -0.371373             0       106.695       -7.2458             0       40.6065             0             0   4.26524e-28      0.094847     0.0263792        111817        103490   2.31545e+06      0.173777
    0.0345345       1859.43       328.435       60442.4       68.5024      -6.36768             0       6.62715     -0.374174             0       106.705      -7.41251             0       39.3442             0             0   5.46851e-27     0.0952103     0.0226502        111825        103492   2.31241e+06      0.174443
     0.035035        1865.3       328.341       60364.6       68.3885      -6.67859             0        6.5854     -0.376827             0       106.697      -7.57544             0       38.0753             0             0   5.01178e-26     0.0955655     0.0190038        111833        103494   2.30937e+06      0.175094
    0.0355355       1871.05       328.191       60175.4       68.3189       -6.9721             0       6.58259     -0.377532             0       106.452      -7.68802             0       36.7177             0             0   6.20978e-25     0.0958137     0.0164567        111837        103496   2.30625e+06      0.175548
     0.036036       1876.71       328.039       59982.5        68.249      -7.26606             0       6.58216     -0.378037             0         106.2      -7.79897             0        35.356             0             0   5.11156e-24     0.0960528     0.0140024        111841        103497   2.30312e+06      0.175987
    0.0365365       1881.33        327.87       59741.4       68.1752      -7.56596             0       6.61246     -0.375976             0       105.865      -7.88886             0       33.9424             0             0    6.0123e-23     0.0961753     0.0127454        111842        103499   2.29987e+06      0.176211
     0.037037       1885.92       327.707       59507.3       68.1095      -7.86567             0       6.64456     -0.373392             0       105.563      -7.98189             0       32.5261             0             0   7.61069e-22     0.0962842     0.0116272        111842        103501   2.29661e+06      0.176411
    0.0375375       1890.13       327.621       59361.5       68.1449      -8.16304             0       6.69939     -0.364281             0       105.689       -8.1143             0       31.0763             0             0   9.54493e-21      0.096224     0.0122465        111839        103503    2.2934e+06        0.1763
     0.038038       1894.22        327.54       59220.8       68.2132       -8.4687             0       6.75653     -0.354799             0       105.877      -8.25399             0       29.6259             0             0   1.20362e-19     0.0961425     0.0130847        111836        103505   2.29016e+06      0.176151
    0.0385385       1896.88       327.504       59143.2       68.6818      -8.87505             0       6.84188     -0.340815             0       106.828      -8.48212             0       28.1674             0             0   1.47169e-18      0.095802     0.0165851        111831        103507   2.28667e+06      0.175527
     0.039039       1899.32       327.456       59041.8       69.1821      -9.29506             0       6.92953     -0.326835             0       107.797      -8.72091             0       26.7096             0             0   1.81375e-17     0.0954362      0.020344        111826        103509   2.28318e+06      0.174857
    0.0395395       1899.03       327.247       58658.7       70.0564      -9.87655             0       7.04448      -0.31291             0       108.971       -9.0858             0       25.2604             0             0   2.15828e-16     0.0947733     0.0271591        111820        103510   2.27948e+06      0.173642
      0.04004       1898.61       327.024         58236       70.8924      -10.4659             0       7.16046     -0.299034             0       110.146      -9.45186             0       23.8168             0             0   2.06067e-15     0.0941022      0.034059        111815        103512   2.27578e+06      0.172413
    0.0405405       1896.65        326.63       57356.6       71.2879      -11.1459             0       7.28827     -0.285716             0       111.324      -9.83147             0       22.4379             0             0   2.28477e-14     0.0933365     0.0419357        111806        103514   2.27189e+06       0.17101
     0.041041       1894.48       326.221       56422.3       71.5184      -11.7971             0       7.41415     -0.272133             0       112.464      -10.1956             0       21.0712             0             0   1.72417e-13     0.0925859     0.0496594        111798        103516   2.26798e+06      0.169635
    0.0415415       1889.91       325.655       54872.9       69.9007      -12.1258             0        7.5184     -0.255592             0       113.177      -10.3865             0       19.8395             0             0   1.76372e-12     0.0920023     0.0556711        111787        103518   2.26396e+06      0.168565
     0.042042       1885.09       325.022       53194.1       68.0939      -12.4157             0       7.61723     -0.238847             0       113.675      -10.5559             0        18.612             0             0   1.33197e-11     0.0914341     0.0615258        111776        103519   2.25998e+06      0.167524
    0.0425425       1877.63        323.66         50104       64.2249      -12.2841             0       7.65702      -0.21988             0       111.828      -10.4911             0       17.4305             0             0   1.33538e-10     0.0910327      0.065669        111763        103521   2.25661e+06      0.166789
     0.043043        1869.5       322.186       46874.8       60.2934      -12.1187             0       7.69084     -0.201011             0       109.686      -10.3888             0       16.2254             0             0   1.75394e-09     0.0906215     0.0699142        111751        103522   2.25332e+06      0.166035
    0.0435435       1854.37       319.515       42166.8       55.6975      -11.5939             0       7.66131     -0.183183             0       104.414      -9.88919             0       14.7696             0             0   1.93182e-08     0.0901058     0.0752444        111739        103524   2.25104e+06      0.165091
     0.044044       1838.86       316.781       37443.3       51.2023      -11.1065             0       7.62687     -0.166276             0       99.0395      -9.36872             0       13.2962             0             0   2.69271e-07     0.0895875     0.0805991        111727        103526   2.24887e+06      0.164141
    0.0445445       1819.35       313.391         32559       47.7503       -11.005             0       7.54155     -0.158915             0       92.6041      -8.63261             0       11.6405             0             0   2.92761e-06     0.0890425     0.0862093        111715        103527   2.24791e+06      0.163143
     0.045045       1799.49       309.979       27660.7       44.3143       -10.842             0       7.45184     -0.151931             0       86.3308      -7.89324             0       9.99216             0             0   4.41838e-05     0.0884878     0.0917481        111706        103529   2.24714e+06      0.162126
    0.0455455       1776.02       306.331       22621.1       41.0394      -10.0562             0       7.31771     -0.148752             0       81.6973      -7.12077             0       8.41811             0             0   0.000475707      0.087835     0.0965649        111714        103530   2.24837e+06       0.16093