#           y             T         TMean   TPrime2Mean           U_x           U_y           U_z       UMean_x       UMean_y       UMean_z UPrime2Mea... UPrime2Mea... UPrime2Mea... UPrime2Mea... UPrime2Mea... UPrime2Mea...            O2           H2O          C3H8             p         pMean   pPrime2Mean           CO2
            0       289.666       288.146      0.264402       22.1684             0             0        22.785             0             0        5.8631             0             0             0             0             0          0.23   3.43132e-18   7.07369e-10        111853        103559   2.95392e+06   6.28681e-18
  0.000500501       289.667       288.146      0.264358       22.1418     -0.164145             0       22.7872    -0.0149173             0       5.88105      0.132425             0     0.0627263             0             0          0.23   3.00303e-17   3.99379e-09        111859        103559   2.95344e+06    5.5021e-17
     0.001001       289.668       288.146      0.264316       22.1151     -0.328298             0       22.7894    -0.0298273             0       5.89913      0.264858             0      0.125554             0             0          0.23    5.8042e-17   7.40154e-09        111865        103559   2.95296e+06   1.06344e-16
    0.0015015       289.673       288.146      0.264451       22.0637     -0.496479             0       22.7815    -0.0410865             0       5.98795      0.400966             0      0.239169             0             0          0.23   7.91018e-16   7.13533e-08        111880        103559   2.95255e+06   1.44929e-15
     0.002002       289.678       288.146      0.264588       22.0122     -0.664638             0       22.7735    -0.0523719             0       6.07708       0.53724             0       0.35342             0             0          0.23   1.60509e-15   1.40127e-07        111895        103559   2.95213e+06   2.94082e-15
    0.0025025       289.684       288.146      0.265118       21.9186     -0.827109             0       22.7707    -0.0701707             0       6.24476      0.714822             0      0.626029             0             0          0.23   2.26108e-14   1.40962e-06        111913        103559   2.95122e+06   4.14272e-14
     0.003003        289.69       288.147      0.265715       21.8252     -0.989545             0       22.7677    -0.0878901             0       6.41394      0.892426             0      0.899395             0             0      0.229999   4.85941e-14   2.83888e-06        111932        103559   2.95032e+06   8.90334e-14
    0.0035035       289.697       288.155      0.277427       21.7608      -1.14633             0       22.7485    -0.0924435             0       6.83133       1.07377             0       1.29839             0             0      0.229993   8.99193e-13   3.07376e-05        111949        103559   2.95056e+06   1.64749e-12
     0.004004       289.704       288.164      0.292025       21.6961      -1.30267             0       22.7294    -0.0971068             0       7.25123       1.25671             0       1.70184             0             0      0.229986   1.92646e-12   6.21812e-05        111965        103559   2.95081e+06   3.52964e-12
    0.0045045       289.712       288.234      0.664365       21.6058      -1.40399             0        22.724     -0.115395             0       7.98233       1.63695             0       2.65693             0             0      0.229877   2.48611e-11   0.000533179        111980        103559   2.95099e+06   4.55501e-11
   0.00500501       289.721       288.307       1.11532       21.5167      -1.50525             0        22.718     -0.133449             0       8.72157       2.01636             0       3.61954             0             0      0.229759   5.22233e-11    0.00104809        111995        103558    2.9512e+06   9.56829e-11
   0.00550551        289.76       288.712       9.34932       21.5489      -1.60073             0       22.6562      -0.12829             0       10.2665       2.31383             0       5.32534             0             0      0.228641   5.17924e-10    0.00591071        112011        103557   2.95397e+06   9.48933e-10
   0.00600601       289.803       289.127       18.5044       21.5802      -1.69565             0       22.5945     -0.123566             0       11.8069       2.61903             0       7.05967             0             0      0.227472   1.18874e-09     0.0109932        112027        103556   2.95676e+06   2.17799e-09
   0.00650651       290.144       290.495       103.498       21.5342      -1.74442             0        22.544     -0.154604             0       12.9776        3.5609             0       11.1423             0             0      0.222139   1.87475e-08     0.0341774        112048        103553   2.96162e+06   3.43489e-08
   0.00700701       290.516       291.894       194.858       21.4814      -1.79438             0        22.493      -0.18459             0       14.1252       4.49768             0       15.2425             0             0      0.216714   4.14768e-08      0.057763        112068        103549   2.96655e+06   7.59933e-08
   0.00750751        292.99       295.507       734.666       20.9583      -1.92863             0       22.4118     -0.140503             0       13.6473       5.07602             0       20.5817             0             0      0.204786   4.28362e-07      0.109621        112089        103544   2.97663e+06    7.8484e-07
   0.00800801       295.627       299.276       1388.62       20.4222      -2.05317             0         22.32    -0.0965927             0       13.1657       5.60929             0        25.932             0             0      0.192855   9.13766e-07      0.161492        112110        103539   2.98671e+06   1.67419e-06
   0.00850851       308.213       312.659       9062.22       19.0945      -1.58051             0       21.5709    -0.0635017             0       12.4535       3.37125             0       31.9633             0             0      0.180729   7.45801e-06      0.214145        112135        103533   2.99728e+06   1.36645e-05
   0.00900901       320.818       326.009         16721       17.7829      -1.09778             0       20.8238    -0.0281818             0        11.735       1.11935             0       37.9788             0             0      0.168666   1.39572e-05      0.266524        112158        103527    3.0075e+06   2.55723e-05
   0.00950951       334.464       337.552       23571.4       17.3495    -0.0652028             0        20.183      0.128738             0       10.6733      -1.88859             0       43.1331             0             0      0.160061   1.80003e-05      0.303897        112165        103522     2.999e+06   3.29799e-05
      0.01001       347.989       348.898       30286.7       16.9139      0.965777             0       19.5382      0.288706             0       9.63047      -4.85028             0       48.1902             0             0      0.151517   2.18843e-05      0.341004        112172        103518   2.99024e+06   4.00961e-05
    0.0105105       355.542       350.568       30380.7       16.3741        1.9187             0       18.6916      0.598037             0        9.5108      -5.54521             0       48.4795             0             0      0.145991   1.79716e-05       0.36507        112168        103521   2.96924e+06   3.29274e-05
     0.011011       363.093       352.226       30487.4       15.8159       2.86693             0       17.8303      0.904987             0       9.44233      -6.18694             0       48.6817             0             0       0.14055     1.408e-05      0.388769        112164        103525   2.94828e+06   2.57973e-05
    0.0115115       370.502       353.384       31159.4        14.442       3.60626             0       16.3113       1.10606             0       11.6498      -4.46314             0       45.0122             0             0      0.138857   1.11236e-05       0.39616        112169        103532   2.92904e+06   2.03805e-05
     0.012012       377.993       354.549       31841.9       13.0711       4.34541             0       14.7937       1.30428             0       13.8501      -2.71547             0       41.3147             0             0      0.137266   8.19539e-06      0.403108        112175        103538   2.90985e+06   1.50155e-05
    0.0125125       388.841       356.024       32950.9       11.8232       5.07697             0       13.3352       1.38643             0       15.7571    0.00257366             0        36.479             0             0      0.139811   6.41648e-06       0.39206        112184        103544   2.89214e+06   1.17562e-05
     0.013013       399.773        357.49       34053.5       10.5719       5.79702             0       11.8968       1.46527             0       17.5902       2.68745             0        31.681             0             0      0.142375     4.657e-06      0.380928        112193        103549    2.8746e+06   8.53248e-06
    0.0135135       413.869       358.604       34913.6       9.19519        6.0856             0       11.2154       1.42028             0       16.6558       4.12985             0       28.2971             0             0      0.145663   3.62501e-06      0.366646        112213        103551   2.86353e+06    6.6417e-06
     0.014014       427.793       359.661       35734.9       7.83432       6.35622             0       10.5559       1.37628             0       15.6809       5.51646             0       24.9425             0             0      0.148721   2.60334e-06      0.353359        112233        103553   2.85258e+06   4.76981e-06
    0.0145145       435.744       358.717       35211.2       7.02254       6.00325             0       10.6564       1.36689             0       13.2989       4.96613             0       22.6052             0             0      0.143831   1.93971e-06       0.37463        112259        103554    2.8459e+06   3.55391e-06
     0.015015       443.365       357.726       34636.3       6.24413       5.64883             0       10.7576       1.35617             0       10.9749       4.42236             0       20.2904             0             0      0.138729   1.28474e-06      0.396818        112285        103555   2.83929e+06   2.35388e-06
    0.0155155       440.276       355.198       32405.6       6.54459       5.24762             0       10.8763        1.3024             0       10.5292        4.0909             0       18.7064             0             0      0.126798    9.0972e-07      0.448695        112314        103555    2.8355e+06   1.66678e-06
     0.016016       436.701       352.521         30084       6.85332       4.83305             0       11.0092       1.24653             0       10.1316        3.7337             0       17.1532             0             0      0.115038   5.40722e-07      0.499831        112343        103554   2.83173e+06   9.90703e-07
    0.0165165       418.452       345.324       25013.7       7.41234       4.01443             0       11.5677       1.12676             0       11.1862       2.59792             0       16.5342             0             0       0.10843   3.53754e-07       0.52856        112378        103553   2.82866e+06   6.48143e-07
     0.017017       399.873       338.031       19925.1       7.98928       3.18518             0       12.1808       1.00181             0        12.275       1.38844             0       15.9194             0             0      0.102421   1.71025e-07       0.55469        112414        103552   2.82558e+06   3.13349e-07
    0.0175175       371.967       328.046       14316.2       9.07547       2.05394             0       14.3458      0.729535             0       14.3331      -1.91515             0       15.4276             0             0      0.113401   1.08725e-07      0.506953        112457        103552   2.82217e+06   1.99204e-07
     0.018018       344.394       318.168       8800.39        10.203      0.920103             0       16.5112      0.465126             0       16.3969      -5.17919             0       14.9471             0             0      0.124642   4.80442e-08      0.458077        112500        103551    2.8187e+06   8.80259e-08
    0.0185185       325.745       311.181       5775.98       12.4372     -0.283358             0       18.6851      0.411455             0       18.6115      -7.38428             0       14.7685             0             0      0.142898   3.07157e-08      0.378705        112541        103550   2.81375e+06   5.62769e-08
     0.019019       307.613       304.314       2829.37       14.6418      -1.45801             0       20.8043      0.361284             0         20.75      -9.50898             0       14.5914             0             0      0.160917   1.39228e-08      0.300362        112582        103548   2.80878e+06   2.55093e-08
    0.0195195       302.548       300.491       1852.36       16.0952      -1.90334             0       21.5349      0.399704             0       20.9652      -9.59844             0       14.4543             0             0      0.172945   1.06912e-08      0.248064        112621        103549   2.80339e+06   1.95882e-08
      0.02002       297.622       296.738       901.955       17.5373      -2.29923             0       22.2519      0.438492             0       21.1164      -9.66264             0       14.3329             0             0      0.184854   7.51501e-09      0.196287        112660        103549   2.79817e+06   1.37689e-08
    0.0205205       296.009       294.626       590.122       18.7055      -1.50885             0       22.6423      0.486087             0       19.7311      -9.12035             0       14.5884             0             0      0.193879   5.67122e-09      0.157049        112701        103548   2.79667e+06   1.03907e-08
     0.021021       294.411       292.553       286.924       19.8699     -0.712927             0       23.0198      0.538375             0       18.3355       -8.5408             0       14.8954             0             0      0.202815   3.84954e-09      0.118194        112742        103548   2.79519e+06   7.05307e-09
    0.0215215       293.148       291.366       180.671       20.9454      0.209449             0        23.101      0.697703             0       16.7066      -7.11138             0       16.3772             0             0      0.209741   2.53219e-09     0.0880812        112780        103546   2.79408e+06   4.63944e-09
     0.022022       291.915       290.207       77.7646       21.9946       1.12136             0       23.1591      0.856387             0       15.1284      -5.62871             0       17.8726             0             0      0.216535   1.25273e-09     0.0585442        112818        103544   2.79299e+06   2.29523e-09
    0.0225225       291.308       289.624       47.5618       22.4742       1.80588             0       22.7154       1.00107             0       14.6536        -2.989             0       19.6636             0             0      0.220452   7.96584e-10     0.0415136        112850        103541   2.79236e+06   1.45949e-09
     0.023023       290.719       289.057       18.4071        22.958       2.48434             0       22.2254       1.15128             0       14.3623     -0.243927             0        21.448             0             0      0.224259   3.71287e-10     0.0249607        112882        103538    2.7917e+06   6.80267e-10
    0.0235235       290.511       288.818       10.9871       23.5259       3.03725             0       20.7755       1.41623             0       17.8765       4.68627             0       23.0941             0             0      0.225788   5.85742e-10     0.0183138        112908        103534   2.79054e+06   1.07319e-09
     0.024024       290.313       288.587       3.84886       24.0248       3.56889             0        19.264       1.67633             0       21.8289       9.62886             0       24.8065             0             0       0.22725   9.28626e-10     0.0119547        112933        103529   2.78933e+06   1.70142e-09
    0.0245245        290.32       288.524       2.29741       23.1533        3.6786             0       16.5297        1.8405             0        34.473       14.8172             0       27.8324             0             0        0.2274   3.81869e-09     0.0113047        112947        103524   2.78719e+06   6.99656e-09
     0.025025       290.334       288.464       0.81142       22.1657       3.74684             0       13.7932       1.98827             0       47.2957       19.7583             0       30.9027             0             0      0.227497   7.97789e-09      0.010883        112960        103518   2.78511e+06    1.4617e-08
    0.0255255       290.476       288.471      0.569168       18.9705       3.02717             0       11.0141       1.82429             0       63.5126       20.0027             0       34.8174             0             0      0.226596   3.62505e-08     0.0147997        112966        103510   2.78427e+06   6.64176e-08
     0.026026       290.624       288.478      0.338659       15.7621       2.28241             0       8.27998       1.64994             0       79.2448       20.0334             0       38.6698             0             0      0.225624   7.63988e-08     0.0190259        112972        103503   2.78359e+06   1.39977e-07
    0.0265265       290.864       288.496      0.322234        12.314       1.08009             0       6.36608       1.28649             0       86.1404         16.17             0       41.3847             0             0      0.223354   3.33051e-07      0.028894        112972        103495   2.78607e+06   6.10212e-07
     0.027027       291.105       288.513      0.307684       8.96504     -0.112307             0       4.48486      0.917786             0       92.4839       12.2669             0       44.0365             0             0      0.221042   6.38736e-07     0.0389424        112971        103487   2.78861e+06   1.17028e-06
    0.0275275       291.377       288.531      0.326005       7.35455      -1.13077             0       3.17605      0.457054             0       89.1572        7.6676             0       45.5826             0             0      0.218001   1.80339e-06     0.0521499        112964        103479   2.79234e+06   3.30415e-06
     0.028028       291.651       288.549      0.344457       5.86282      -2.13013             0       1.89329   -0.00307635             0       85.6383       3.11845             0       47.0662             0             0      0.215041   3.05962e-06     0.0650098        112957        103471   2.79599e+06   5.60579e-06
    0.0285285       291.937       288.563      0.365098       6.37299      -2.80741             0       1.04959     -0.453056             0       78.8786     -0.584555             0        47.498             0             0      0.213423   5.85947e-06     0.0720132        112946        103464   2.79828e+06   1.07356e-05
     0.029029       292.227       288.577      0.386371       6.93255      -3.48952             0       0.21951     -0.899312             0       72.1333      -4.19513             0       47.8648             0             0      0.211894   8.75405e-06     0.0786318        112935        103457   2.80027e+06    1.6039e-05
    0.0295295       292.562       288.588      0.417895       8.29433      -4.24998             0     -0.389347      -1.28507             0       65.6194      -6.30446             0       47.1768             0             0      0.211799   1.31872e-05     0.0790013        112923        103452   2.79764e+06   2.41614e-05
      0.03003       292.927       288.599      0.452445       9.66378      -5.02015             0     -0.990956      -1.66761             0        59.183      -8.33698             0       46.4381             0             0      0.211699   1.80011e-05     0.0793828        112911        103446   2.79458e+06   3.29815e-05
    0.0305305       293.766       288.615      0.534403       11.1535      -5.94247             0      -1.47901      -1.99965             0       53.9581      -9.16629             0       44.9067             0             0      0.211543   2.87814e-05     0.0799531        112897        103442   2.78487e+06    5.2733e-05
     0.031031       294.665       288.632      0.622666       12.6285      -6.86756             0      -1.96217      -2.32667             0       48.8909      -9.94178             0       43.3454             0             0      0.211366   4.01696e-05     0.0806053        112884        103439   2.77469e+06   7.35982e-05
    0.0315315       296.463       288.655      0.806311       13.8795       -7.8344             0      -2.37119      -2.57773             0       46.2071      -9.90315             0       41.3312             0             0      0.210883   6.07539e-05     0.0824955        112865        103437   2.75723e+06   0.000111313
     0.032032       298.288       288.679      0.997677       15.0977      -8.79987             0      -2.77247      -2.82383             0       43.6574       -9.8434             0       39.3102             0             0      0.210399   8.13837e-05     0.0843878        112847        103436   2.73942e+06    0.00014911
    0.0325325       300.497       288.705       1.30196       15.8357      -9.74542             0      -3.06058      -2.99738             0       43.0687       -9.4747             0       37.1877             0             0      0.209906   0.000102678     0.0863117        112824        103436   2.71642e+06   0.000188124
     0.033033       302.677        288.73       1.61162       16.5279      -10.6807             0      -3.33999      -3.16587             0        42.498      -9.09447             0       35.0707             0             0      0.209434   0.000123373     0.0881499        112801        103437   2.69333e+06   0.000226042
    0.0335335       304.447       288.753       1.99724       16.5721      -11.4701             0      -3.49644      -3.26273             0       42.1809      -8.55095             0       33.0309             0             0      0.209262   0.000135596     0.0887748        112774        103438   2.66893e+06   0.000248437
     0.034034       306.155       288.776       2.37638       16.5729      -12.2452             0      -3.64482       -3.3559             0       41.8137      -7.98988             0        31.006             0             0      0.209128   0.000146921     0.0892384        112748        103440   2.64477e+06   0.000269186
    0.0345345       307.017       288.791       2.66673       15.9775      -12.8227             0      -3.68257      -3.39851             0       40.7586      -7.18829             0       29.1869             0             0      0.209533   0.000145928     0.0874903        112724        103443   2.62382e+06   0.000267367
     0.035035       307.765       288.806       2.93471       15.3482      -13.3868             0      -3.71449      -3.43765             0       39.6441      -6.36931             0       27.3846             0             0          0.21   0.000143626     0.0854834        112701        103445    2.6033e+06   0.000263149
    0.0355355       307.013       288.808       2.90552       14.2687      -13.7734             0      -3.66892      -3.43073             0       37.7396      -5.31934             0       25.8072             0             0      0.211299   0.000123932     0.0800373        112682        103448   2.58842e+06   0.000227067
     0.036036       306.148       288.809       2.85443       13.1709       -14.159             0      -3.61773      -3.42049             0       35.7877      -4.27581             0       24.2497             0             0      0.212607   0.000103744     0.0745574        112664        103451   2.57409e+06   0.000190078
    0.0365365       303.832         288.8       2.52104       11.8386       -14.533             0      -3.49403      -3.36736             0       33.2239      -3.31516             0       22.9482             0             0       0.21403   7.71779e-05     0.0686432        112653        103453   2.56664e+06   0.000141404
     0.037037       301.535       288.791       2.18859       10.4897      -14.9097             0        -3.366      -3.31044             0       30.6441       -2.3637             0       21.6697             0             0      0.215401   5.14607e-05     0.0629448        112643        103456   2.55976e+06   9.42856e-05
    0.0375375       299.473       288.783       1.86803       8.93404      -15.3205             0      -3.18364      -3.20622             0       27.8626      -1.52721             0        20.679             0             0      0.216126   3.63665e-05     0.0599479        112637        103458   2.56006e+06   6.66302e-05
     0.038038       297.492       288.777       1.56313       7.35376      -15.7253             0      -2.99745      -3.09885             0       25.1329     -0.686316             0       19.7049             0             0      0.216817   2.20443e-05     0.0570912        112632        103461   2.56098e+06   4.03892e-05
    0.0385385       296.491       288.779       1.44873       5.47403      -16.0582             0      -2.76458      -2.95317             0       23.0337      0.208171             0       18.9313             0             0      0.217094    1.7108e-05     0.0559383        112631        103463   2.56939e+06    3.1345e-05
     0.039039       295.531       288.783       1.34849       3.56996       -16.371             0      -2.52884      -2.80524             0       21.0342       1.10759             0       18.1607             0             0      0.217357   1.24694e-05     0.0548452        112631        103465   2.57834e+06   2.28463e-05
    0.0395395       295.064       288.797        1.4156       1.37807      -16.4459             0      -2.25928      -2.63079             0       20.2138        2.0653             0       17.4258             0             0      0.217448   1.13492e-05     0.0544582        112635        103468   2.59368e+06   2.07938e-05
      0.04004       294.626       288.812       1.50021     -0.823316      -16.4969             0      -1.98646      -2.45562             0       19.4807       3.01288             0       16.6814             0             0      0.217531   1.03557e-05     0.0541093        112639        103470   2.60942e+06   1.89735e-05
    0.0405405       294.523       288.837       1.78593      -3.13389      -16.2727             0      -1.67613      -2.27208             0       19.7504       3.84395             0        15.826             0             0      0.217509   1.08194e-05     0.0541981        112648        103473   2.62976e+06   1.98231e-05
     0.041041       294.447       288.864       2.10605      -5.43485      -16.0241             0      -1.36205      -2.08848             0       20.0632       4.65641             0       14.9599             0             0      0.217476   1.14542e-05     0.0543348        112657        103476   2.65029e+06   2.09862e-05
    0.0415415       294.679       288.906       2.81123      -7.62808      -15.5023             0       -1.0059      -1.90425             0       20.8597       5.26052             0       13.9733             0             0      0.217316   1.40042e-05     0.0550072        112670        103479   2.67306e+06   2.56583e-05
     0.042042        294.95        288.95       3.59608      -9.79072      -14.9594             0     -0.646351      -1.72095             0       21.6779       5.84788             0        12.978             0             0      0.217147   1.69109e-05     0.0557115        112684        103482   2.69586e+06   3.09839e-05
    0.0425425       295.655       289.015       5.24987      -11.6198      -14.1863             0      -0.24979      -1.54772             0       22.7341       6.25264             0       11.8887             0             0      0.216889    2.3707e-05     0.0567635        112701        103485   2.71909e+06   4.34356e-05
     0.043043        296.43       289.082        7.0484      -13.4111      -13.4033             0      0.147498      -1.37591             0       23.8188       6.63878             0       10.7971             0             0      0.216621   3.14765e-05     0.0578482        112719        103488    2.7422e+06   5.76708e-05
    0.0435435       297.941       289.167       10.3853      -14.8016      -12.5138             0      0.552519      -1.21933             0       25.2056       6.82692             0       9.68004             0             0      0.216249   4.95917e-05     0.0592809        112740        103492   2.76405e+06   9.08613e-05
     0.044044       299.593       289.253       13.8459      -16.1661      -11.6318             0      0.957168      -1.06435             0       26.6122       6.99522             0       8.56726             0             0      0.215839   7.05665e-05     0.0608475        112762        103495   2.78568e+06   0.000129291
    0.0445445       302.708       289.341       18.5892      -17.2628      -10.8259             0       1.35796     -0.925853             0       28.2246       6.95773             0       7.49857             0             0       0.21504   0.000121176      0.063801        112785        103499   2.80502e+06   0.000222018
     0.045045       306.071       289.427       23.2992      -18.3451      -10.0278             0       1.75583     -0.789126             0       29.8172       6.89236             0       6.43701             0             0      0.214125   0.000178336     0.0671902        112809        103502   2.82404e+06   0.000326744
    0.0455455       311.931       289.489       27.6736      -19.2825       -9.3086             0       2.12421     -0.670246             0       31.2094       6.54509             0       5.44768             0             0      0.212041   0.000301715     0.0749857        112835        103506    2.8398e+06   0.000552798