#           y             T         TMean   TPrime2Mean           U_x           U_y           U_z       UMean_x       UMean_y       UMean_z UPrime2Mea... UPrime2Mea... UPrime2Mea... UPrime2Mea... UPrime2Mea... UPrime2Mea...            O2           H2O          C3H8             p         pMean   pPrime2Mean           CO2
  1.11022e-19       291.353        288.28      0.564267       35.5557  -1.63117e-14             0       21.1982  -1.17825e-15             0       35.0293  -1.22082e-14             0   6.08868e-16             0             0      0.229913   1.43699e-05    0.00023135        112352        103533   2.54651e+06   2.63284e-05
  0.000500501       291.775        288.43        2.7974       35.5546     -0.318197             0       21.2004      0.043363             0       35.0721     -0.235002             0      0.104778             0             0      0.229673   7.42375e-05    0.00065845        112360        103533   2.54629e+06   0.000136017
     0.001001       292.209       288.582       5.17015       35.5537     -0.636351             0       21.2026     0.0867216             0       35.1159     -0.470066             0      0.209605             0             0       0.22943   0.000135396    0.00108942        112368        103533   2.54607e+06   0.000248071
    0.0015015         297.9       289.694       77.2138       35.6501     -0.933266             0       21.2244      0.127889             0       35.6452     -0.735768             0      0.338632             0             0      0.227221   0.000840866    0.00345027        112412        103533   2.54508e+06    0.00154062
     0.002002        303.72       290.819       153.496       35.7482      -1.23018             0       21.2463      0.169111             0       36.1792      -1.00106             0      0.468142             0             0      0.224982    0.00155813    0.00582209        112455        103533    2.5441e+06    0.00285479
    0.0025025       341.526       295.271       1285.06       36.2613      -1.52813             0       21.3084      0.224011             0       37.8828      -1.16469             0      0.717798             0             0      0.215181    0.00521243     0.0109251        112480        103532   2.54376e+06    0.00955014
     0.003003       380.417       299.816       2556.48       36.7928      -1.82683             0       21.3714      0.278895             0       39.6225      -1.32905             0      0.968267             0             0      0.205225    0.00893418     0.0160083        112505        103532   2.54341e+06     0.0163691
    0.0035035       598.929       319.805       26998.8       40.3791      -2.24919             0       21.5915       0.33096             0       47.3587      -1.61438             0       1.35333             0             0       0.16964       0.02383     0.0178186        112554        103532   2.54242e+06     0.0436609
     0.004004       818.607       339.822       51548.3       43.9865      -2.65919             0       21.8125      0.383132             0       55.1522      -1.90075             0       1.74028             0             0      0.133961     0.0387698     0.0195897        112602        103531   2.54143e+06     0.0710334
    0.0045045       1182.94       363.201       89400.6       50.2163      -1.53602             0       22.1455      0.448597             0       70.0542      -2.31501             0       2.36184             0             0      0.086513     0.0591679     0.0164967        112613        103530   2.54131e+06      0.108407
   0.00500501       1545.36       386.424        127036       56.4187     -0.435088             0        22.477      0.513502             0        84.929      -2.74601             0       2.98648             0             0     0.0393422      0.079441      0.013483        112624        103530    2.5412e+06      0.145551
   0.00550551        1717.6       394.224        143155       59.9119      -1.53721             0       22.6696      0.522997             0       97.1097       -4.8348             0       3.91475             0             0     0.0195997     0.0873315     0.0183246        112589        103529   2.54276e+06      0.160008
   0.00600601       1887.54       401.934        159073       63.3756       -2.6482             0       22.8593      0.532548             0         109.2      -6.92206             0         4.843             0             0   9.34982e-05     0.0951091     0.0232969        112555        103529    2.5443e+06      0.174258
   0.00650651       1868.53       402.247        158436        64.408      -4.48959             0       22.8073      0.546677             0       113.883      -8.88403             0       5.76936             0             0   4.64918e-05     0.0935975     0.0390215        112550        103528   2.54421e+06      0.171488
   0.00700701        1849.4       402.534        157734       65.4371      -6.31919             0       22.7526      0.560903             0       118.534      -10.8427             0       6.69964             0             0   1.42519e-07     0.0920803     0.0547999        112546        103527   2.54411e+06      0.168708
   0.00750751       1821.49       400.944        152444       66.2408      -7.31755             0       22.5121      0.582003             0       120.958       -12.571             0       7.90634             0             0   7.07962e-08     0.0901753     0.0743626        112528        103527    2.5438e+06      0.165218
   0.00800801       1793.56       399.352        147152       67.0394       -8.3166             0       22.2695      0.603054             0       123.394      -14.3001             0       9.11372             0             0   2.18786e-10     0.0882692     0.0939357        112510        103526   2.54348e+06      0.161726
   0.00850851       1765.11       397.664        141768       67.5333      -9.35759             0       21.8982      0.621071             0       126.567      -16.0758             0       10.3635             0             0   1.08586e-10     0.0863021      0.114146        112500        103525   2.54217e+06      0.158122
   0.00900901       1736.68       396.013        136448       68.0194      -10.3891             0       21.5254      0.638789             0       129.735      -17.8527             0       11.6178             0             0    3.6729e-13     0.0843357       0.13435        112489        103524   2.54085e+06      0.154519
   0.00950951       1709.69       396.356        134672       68.0855      -10.9017             0       21.0647      0.640198             0       132.695      -19.6879             0       13.1216             0             0   1.82147e-13      0.082407      0.154183        112478        103523   2.53897e+06      0.150985
      0.01001       1682.72       396.681        132870       68.1386      -11.4149             0       20.6037      0.641473             0       135.631      -21.5176             0       14.6287             0             0   7.35619e-16     0.0804802      0.173996        112467        103522   2.53709e+06      0.147455
    0.0105105       1656.92       396.097        129829       67.5541      -11.9541             0       20.1276       0.63615             0       137.368      -23.0773             0       16.2959             0             0   2.23637e-15     0.0786493      0.192831        112456        103521   2.53477e+06        0.1441
     0.011011       1630.91       395.471        126731       66.9525      -12.4906             0       19.6514      0.630449             0       139.086      -24.6343             0       17.9647             0             0   8.68049e-15     0.0768032       0.21182        112446        103520   2.53244e+06      0.140718
    0.0115115       1595.12       392.961        121129       65.5906      -12.9068             0       19.1714      0.607945             0       139.901      -26.0677             0       19.7064             0             0    2.3488e-13     0.0742861      0.237708        112433        103518    2.5296e+06      0.136106
     0.012012       1558.95       390.486        115611       64.2131      -13.3261             0       18.6911      0.585398             0       140.742      -27.5011             0       21.4501             0             0   1.03444e-12     0.0717388      0.263904        112419        103517   2.52677e+06      0.131439
    0.0125125       1507.19       389.401        113523       62.2036      -13.8683             0       18.2029      0.561079             0       142.661      -28.9376             0       23.2751             0             0   2.51508e-11     0.0679699       0.30264        112406        103515   2.52398e+06      0.124533
     0.013013       1455.47       388.348        111507       60.1941      -14.4086             0       17.7162      0.536289             0       144.579      -30.3765             0       25.1102             0             0   8.70263e-11     0.0642019      0.341364        112392        103513   2.52118e+06       0.11763
    0.0135135       1405.12       388.465        112245       58.1832      -14.8835             0        17.286      0.493872             0       146.461       -31.904             0        27.322             0             0   1.56342e-09     0.0604714      0.379651        112376        103511    2.5178e+06      0.110795
     0.014014       1355.22       388.604        113033       56.1862      -15.3659             0        16.858       0.45106             0       148.279      -33.4182             0       29.5357             0             0   4.23287e-09     0.0567809      0.417526        112360        103509   2.51442e+06      0.104033
    0.0145145       1320.89       389.545        115546        54.675        -16.11             0       16.5085      0.394516             0       147.931      -34.4691             0       31.8188             0             0   4.83186e-08     0.0544799      0.441096        112345        103507   2.51098e+06     0.0998174
     0.015015       1287.05       390.492        118080       53.1799       -16.862             0       16.1593      0.338527             0       147.509       -35.485             0       34.0942             0             0   1.12995e-07     0.0522242      0.464202        112330        103504   2.50752e+06     0.0956844
    0.0155155       1268.71       391.639        121318       52.2082      -17.8716             0       15.8236      0.300469             0       144.682      -35.3679             0       36.1207             0             0   8.43418e-07     0.0514304      0.472307        112315        103502   2.50343e+06     0.0942301
     0.016016       1250.42       392.779        124553       51.2363       -18.887             0       15.4899      0.262501             0       141.936      -35.2877             0       38.1637             0             0   2.19011e-06     0.0506665      0.480103        112299        103499   2.49934e+06     0.0928304
    0.0165165       1233.61       393.733        127705       50.2559      -20.0767             0       15.2155      0.227264             0       141.612      -36.3241             0       40.7101             0             0   2.21791e-05     0.0508064       0.47855        112287        103497   2.49527e+06     0.0930867
     0.017017       1216.79       394.685        130855       49.2735      -21.2763             0        14.945      0.192051             0       141.514      -37.4469             0       43.3033             0             0   4.83761e-05     0.0509705       0.47672        112276        103494   2.49114e+06     0.0933875
    0.0175175       1199.87       395.555        133969       48.2307        -22.76             0       14.7842      0.157535             0       147.841      -41.0294             0       47.2272             0             0   0.000250955      0.051825      0.467044        112265        103492   2.48533e+06      0.094953
     0.018018       1183.02       396.427        137094       47.1685      -24.2331             0       14.6252      0.123419             0       154.363      -44.6799             0        51.181             0             0     0.0005289     0.0526764      0.457071        112254        103490    2.4796e+06      0.096513
    0.0185185       1168.22       397.363        140537       45.5843      -25.4258             0       14.5142      0.100023             0       166.114      -50.1488             0       55.9329             0             0    0.00282496     0.0534491      0.439144        112250        103488   2.47593e+06     0.0979287
     0.019019       1151.78       398.261        143921       43.9483      -26.5625             0       14.3992     0.0779569             0       177.625      -55.5475             0       60.6897             0             0    0.00550752     0.0540959      0.420828        112246        103485   2.47231e+06     0.0991139
    0.0195195       1093.84       398.206        145795            41      -26.2826             0       14.1851     0.0895763             0       183.071      -59.1694             0       65.5698             0             0     0.0179747     0.0515583      0.392663        112247        103483    2.4698e+06     0.0944644
      0.02002       1033.85       398.102        147574       38.0053      -25.9402             0        13.966      0.103437             0       188.073      -62.6523             0       70.4034             0             0     0.0308647     0.0488749      0.364156        112249        103481   2.46717e+06      0.089548
    0.0205205       924.544       396.825        147066       33.8993      -24.0964             0       13.6288      0.171102             0       182.451      -62.8011             0       74.1188             0             0     0.0539026     0.0426935      0.327437        112265        103479   2.46153e+06     0.0782224
     0.021021       816.414       395.543        146506       29.8225      -22.2702             0       13.2919      0.240067             0       176.816      -62.9494             0       77.8675             0             0     0.0767609     0.0365728      0.290875        112282        103477   2.45605e+06     0.0670082
    0.0215215       735.127       394.134        144773       26.4143      -20.8449             0       12.9638       0.33872             0       170.904      -63.0887             0       82.3766             0             0     0.0955235      0.031839      0.257886        112314        103475   2.45429e+06      0.058335
     0.022022       659.753       392.716        142970       23.0812      -19.4917             0       12.6397       0.44146             0       165.203      -63.2045             0       86.7324             0             0      0.113458     0.0274225       0.22524        112346        103474   2.45385e+06     0.0502432
    0.0225225       712.852       391.117        139659       21.3788      -19.7063             0       12.4016      0.633003             0       164.092      -62.8121             0       87.7567             0             0      0.113398      0.029901      0.200053        112378        103475   2.48207e+06     0.0547843
     0.023023       767.344       389.295        135996       19.7081      -19.9242             0       12.1572       0.83523             0       162.322      -61.8846             0       88.3503             0             0      0.113181     0.0324153      0.175184        112410        103475   2.51259e+06     0.0593908
    0.0235235       850.728       382.865        125016       18.6965      -20.2108             0       11.7821       1.25902             0       146.882      -49.8593             0       80.0096             0             0      0.109702     0.0356713      0.156882        112461        103480   2.59091e+06     0.0653564
     0.024024       930.403       376.191        113644       17.7019      -20.3744             0       11.4018       1.68977             0       130.972      -37.5606             0       71.7336             0             0       0.10665     0.0387027      0.139028        112514        103485   2.66956e+06     0.0709106
    0.0245245       936.529       364.674       94515.7       17.0453      -18.0989             0       10.9159       2.25847             0       105.761      -19.8391             0       64.7385             0             0      0.112079     0.0372797      0.130027        112610        103492   2.75466e+06     0.0683033
     0.025025       934.634       352.937       75174.5       16.3397      -15.7676             0       10.4396       2.82245             0       81.1611      -2.62446             0       58.0855             0             0      0.118234     0.0355028      0.121501        112704        103498   2.83683e+06     0.0650477
    0.0255255        780.33       337.001       51793.9       14.7025      -12.3762             0       10.1451       3.29684             0       68.1712       4.96141             0       57.9313             0             0      0.138189     0.0270026      0.121994        112774        103500   2.86333e+06     0.0494739
     0.026026       626.098       321.287       28911.8       13.1283      -9.11712             0       9.85756       3.76124             0       55.5739       12.1945             0       57.8617             0             0      0.158104      0.018516      0.122524        112842        103502   2.88828e+06     0.0339247
    0.0265265       473.192       309.636       15118.1       12.7047      -8.27029             0       9.69767       4.04347             0       50.1342       12.9953             0       59.3362             0             0      0.177284     0.0102752      0.123724        112865        103501   2.88497e+06     0.0188262
     0.027027       328.489       298.496       2030.36       12.4101      -7.47993             0       9.54073       4.32322             0       44.9157       13.7939             0       60.8042             0             0      0.195567    0.00243547      0.124706        112888        103501   2.88099e+06    0.00446224
    0.0275275       327.475       296.303       1310.93        14.375      -7.67881             0       9.43559       4.55941             0       43.5724       14.5531             0       62.1603             0             0       0.19814    0.00161988      0.121891        112887        103500   2.86521e+06    0.00296792
     0.028028       326.532       294.194       625.421        16.267      -7.88665             0       9.32866       4.79573             0       42.2602       15.3254             0       63.5107             0             0      0.200614   0.000839656      0.119143        112886        103499   2.84942e+06    0.00153841
    0.0285285       326.798        293.51       511.888       16.9289      -8.24542             0       9.19171       5.03421             0       41.4703       16.3206             0       64.7652             0             0      0.201417   0.000655791       0.11754        112886        103498   2.83338e+06    0.00120153
     0.029029       327.023       292.847       402.261       17.5682      -8.60567             0       9.05244       5.27259             0       40.6921       17.3146             0       65.9883             0             0      0.202203    0.00047712      0.115957        112887        103498   2.81773e+06   0.000874173
    0.0295295       326.589       292.522       356.087       17.8408      -8.99002             0       8.87571       5.50923             0       40.1056         18.29             0       66.7018             0             0      0.202717   0.000382818       0.11469        112896        103498   2.80828e+06   0.000701394
      0.03003       326.126       292.205       310.999       18.1216      -9.34985             0        8.6985       5.74683             0       39.5585       19.2737             0       67.4038             0             0       0.20323   0.000290366       0.11341        112905        103498   2.79825e+06   0.000532005
    0.0305305       325.192       292.007       282.916       18.5319      -9.32564             0        8.5139       5.99938             0       39.6286       20.3877             0       67.9268             0             0      0.203724   0.000226911      0.111912        112900        103497   2.77938e+06   0.000415743
     0.031031       324.228       291.812       255.281       18.9084      -9.29147             0       8.32839       6.25162             0       39.7055        21.492             0       68.4326             0             0      0.204212   0.000166056      0.110413        112895        103497   2.76051e+06   0.000304246
    0.0315315       322.804       291.655       234.424       18.7713      -9.10664             0       8.12921       6.49923             0       39.8868       22.4487             0       68.6792             0             0      0.204607   0.000144553      0.108916        112886        103496    2.7418e+06   0.000264848
     0.032032       321.363       291.498        213.86       18.6218      -8.90335             0        7.9297       6.74625             0         40.09       23.3873             0       68.9149             0             0      0.205006   0.000123805      0.107397        112876        103496    2.7229e+06   0.000226834
    0.0325325       319.677       291.358       197.576       18.2908      -8.43003             0       7.72529       6.98464             0       40.6124       24.0618             0       68.9902             0             0      0.205455   0.000114106      0.105545        112860        103496   2.70124e+06   0.000209064
     0.033033       317.989        291.22       181.586        17.953      -7.95475             0       7.52027       7.22112             0       41.1512        24.707             0       69.0509             0             0      0.205905   0.000104755      0.103682        112844        103496   2.67975e+06    0.00019193
    0.0335335       316.274       291.102       169.757        17.519       -7.4518             0       7.30668       7.43076             0       41.9217       24.9387             0       68.9044             0             0      0.206384   0.000100308      0.101646        112829        103496   2.66075e+06   0.000183782
     0.034034       314.539       290.985       158.104       17.0937      -6.94641             0       7.09253       7.63786             0       42.7115        25.139             0       68.7356             0             0      0.206865   9.59008e-05     0.0996012        112814        103496    2.6419e+06   0.000175708
    0.0345345       312.544       290.876       148.858       16.7901      -6.40769             0       6.87065       7.81017             0        43.766       24.9099             0       68.2597             0             0      0.207369   9.20452e-05     0.0974471        112798        103497   2.62494e+06   0.000168644
     0.035035       310.551       290.767       139.721       16.4916      -5.87554             0       6.64764       7.97888             0       44.8294       24.6473             0        67.754             0             0      0.207872   8.81515e-05     0.0953018        112782        103498   2.60824e+06    0.00016151
    0.0355355        308.58       290.659       132.028       16.2616      -5.43075             0       6.40968       8.09973             0       46.0109       23.9374             0        66.853             0             0      0.208349   8.37506e-05     0.0932747        112764        103499   2.59498e+06   0.000153447
     0.036036       306.627       290.551       124.441       16.0351      -4.98533             0       6.16992       8.21644             0       47.1958       23.1965             0       65.9171             0             0      0.208818   7.93085e-05     0.0912794        112747        103501    2.5819e+06   0.000145308
    0.0365365       304.911       290.447       118.209       15.8551      -4.53171             0       5.90686       8.27965             0       48.4226       22.0555             0       64.5324             0             0      0.209195    7.4337e-05     0.0896925        112727        103503   2.57115e+06   0.000136199
     0.037037       303.213       290.343       112.096       15.6739      -4.08007             0       5.64112       8.33805             0        49.646       20.8858             0       63.1116             0             0      0.209565   6.93661e-05     0.0881335        112708        103506   2.56057e+06   0.000127092
    0.0375375        301.74       290.255       107.454       15.4767      -3.65314             0       5.34189       8.33619             0       50.8261       19.3571             0       61.2396             0             0      0.209855    6.4402e-05     0.0869226        112690        103508   2.55217e+06   0.000117996
     0.038038       300.296       290.169        102.93       15.2784      -3.21984             0       5.03936       8.32941             0       52.0039       17.8078             0        59.331             0             0      0.210137   5.94673e-05     0.0857498        112672        103511   2.54392e+06   0.000108955
    0.0385385       299.206        290.11       99.8429       15.0663      -2.70907             0       4.69666       8.26283             0       53.1541       16.0087             0       56.9763             0             0      0.210311   5.48903e-05     0.0850403        112658        103515   2.53741e+06   0.000100569
     0.039039       298.136       290.052        96.814       14.8527      -2.19871             0       4.35049       8.19109             0        54.305       14.1994             0       54.5901             0             0      0.210476   5.03496e-05     0.0843683        112644        103519   2.53104e+06   9.22499e-05
    0.0395395       297.297       290.015       94.4691       14.6221      -1.69321             0       3.96326       8.05848             0       55.4645       12.2703             0       51.8303             0             0      0.210538   4.62373e-05       0.08414        112630        103523   2.52639e+06   8.47153e-05
      0.04004       296.464        289.98       92.1628       14.3786      -1.18185             0       3.57357       7.92067             0         56.61       10.3382             0       49.0492             0             0      0.210599   4.20803e-05     0.0839185        112617        103527   2.52188e+06    7.7099e-05
    0.0405405       295.702       289.961       90.3005       13.9872     -0.603202             0       3.15568       7.72314             0       57.5937       8.37206             0       46.0246             0             0      0.210643   3.74102e-05     0.0837741        112603        103532   2.51894e+06   6.85425e-05
     0.041041       294.946       289.943       88.4565       13.5718    -0.0335932             0       2.73741       7.52009             0       58.5301       6.40353             0       42.9859             0             0       0.21069   3.27212e-05     0.0836216        112589        103537   2.51616e+06   5.99513e-05
    0.0415415       294.249       289.934       86.8163       12.8877      0.434821             0       2.31487       7.25524             0       58.9381       4.40851             0       39.7898             0             0      0.210757   2.78194e-05     0.0833777        112576        103542   2.51522e+06   5.09704e-05
     0.042042       293.573       289.926       85.1519       12.2278      0.907751             0       1.89394       6.98541             0       59.2924       2.42085             0       36.5857             0             0      0.210811   2.30569e-05     0.0831934        112564        103547   2.51448e+06   4.22445e-05
    0.0425425       293.117       289.921       83.2248       11.8315       1.42992             0       1.49047        6.6612             0       59.0627      0.513503             0       33.2937             0             0      0.210711   1.98123e-05     0.0836588        112554        103552   2.51604e+06   3.62999e-05
     0.043043       292.677       289.917       81.2566       11.4425        1.9363             0       1.08851       6.33298             0       58.8102      -1.37078             0       30.0021             0             0      0.210607   1.67241e-05     0.0841426        112545        103558   2.51769e+06   3.06417e-05
    0.0435435       292.406       289.916       78.8506       11.1302       2.27495             0      0.702476       5.96222             0       58.3152      -3.00991             0       26.7139             0             0      0.210454   1.52979e-05      0.084823        112533        103563   2.52037e+06   2.80287e-05
     0.044044       292.143       289.915       76.4086       10.7593       2.62597             0      0.319023       5.58793             0        57.792      -4.60382             0       23.4422             0             0      0.210321   1.39825e-05     0.0854164        112521        103568   2.52324e+06   2.56185e-05
    0.0445445       291.971       289.913       73.5925       9.78107       3.10532             0    -0.0377121       5.17712             0       56.9766      -5.72917             0       20.3413             0             0      0.210392   1.38148e-05     0.0851075        112511        103574   2.52803e+06   2.53112e-05
     0.045045       291.806        289.91       70.6786       8.75618       3.54745             0     -0.388952       4.76186             0       56.0965      -6.78956             0       17.2657             0             0      0.210477   1.40766e-05     0.0847357        112502        103579   2.53293e+06   2.57909e-05
    0.0455455       291.715       289.888       66.7757       7.25937       3.61326             0     -0.684626       4.30149             0       54.5627      -7.19308             0       14.4467             0             0      0.210699   1.86815e-05      0.083727        112501        103584   2.53902e+06   3.42279e-05