#           y             T         TMean   TPrime2Mean           U_x           U_y           U_z       UMean_x       UMean_y       UMean_z UPrime2Mea... UPrime2Mea... UPrime2Mea... UPrime2Mea... UPrime2Mea... UPrime2Mea...            O2           H2O          C3H8             p         pMean   pPrime2Mean           CO2
         0.04       295.758       289.508       38.7762      -3.68801       20.1352             0      -4.39183       -5.1009             0       20.9684        13.364             0       86.9638             0             0      0.213701   4.98685e-05     0.0703553        113668        103589   3.77079e+06   9.13684e-05
     0.039975        295.78       289.507       38.7223      -3.60209       20.1317             0      -4.38361      -5.10613             0       21.0157       13.3941             0        87.211             0             0      0.213686   5.00971e-05     0.0704169        113666        103589   3.77069e+06   9.17873e-05
    0.0399499       295.801       289.506       38.6684      -3.51617       20.1282             0      -4.37539      -5.11135             0        21.063       13.4241             0       87.4582             0             0      0.213671   5.03257e-05     0.0704784        113665        103588   3.77058e+06   9.22061e-05
    0.0399249       295.823       289.505       38.6145      -3.43025       20.1247             0      -4.36716      -5.11658             0       21.1103       13.4541             0       87.7054             0             0      0.213657   5.05543e-05       0.07054        113663        103588   3.77048e+06   9.26249e-05
    0.0398999       295.845       289.504       38.5606      -3.34433       20.1211             0      -4.35894      -5.12181             0       21.1576       13.4841             0       87.9526             0             0      0.213642   5.07829e-05     0.0706016        113661        103588   3.77038e+06   9.30438e-05
    0.0398749       295.866       289.502       38.5067      -3.25841       20.1176             0      -4.35072      -5.12704             0       21.2048       13.5141             0       88.1998             0             0      0.213627   5.10115e-05     0.0706632        113660        103588   3.77028e+06   9.34626e-05
    0.0398498       295.888       289.501       38.4528      -3.17249       20.1141             0      -4.34249      -5.13226             0       21.2521       13.5442             0        88.447             0             0      0.213612   5.12401e-05     0.0707247        113658        103588   3.77017e+06   9.38814e-05
    0.0398248        295.91         289.5       38.3989      -3.08658       20.1106             0      -4.33427      -5.13749             0       21.2994       13.5742             0       88.6942             0             0      0.213598   5.14687e-05     0.0707863        113657        103587   3.77007e+06   9.43003e-05
    0.0397998       295.932       289.499        38.345      -3.00066       20.1071             0      -4.32605      -5.14272             0       21.3467       13.6042             0       88.9414             0             0      0.213583   5.16973e-05     0.0708479        113655        103587   3.76997e+06   9.47191e-05
    0.0397748       295.953       289.498       38.2911      -2.91474       20.1036             0      -4.31783      -5.14794             0        21.394       13.6342             0       89.1886             0             0      0.213568   5.19259e-05     0.0709095        113653        103587   3.76987e+06    9.5138e-05
    0.0397497       295.975       289.497       38.2372      -2.82882       20.1001             0       -4.3096      -5.15317             0       21.4413       13.6642             0       89.4358             0             0      0.213554   5.21545e-05      0.070971        113652        103587   3.76976e+06   9.55568e-05
    0.0397247       295.997       289.496       38.1833       -2.7429       20.0965             0      -4.30138       -5.1584             0       21.4886       13.6943             0        89.683             0             0      0.213539   5.23831e-05     0.0710326        113650        103587   3.76966e+06   9.59756e-05
    0.0396997       296.019       289.495       38.1294      -2.65698        20.093             0      -4.29316      -5.16363             0       21.5359       13.7243             0       89.9302             0             0      0.213524   5.26117e-05     0.0710942        113648        103586   3.76956e+06   9.63945e-05
    0.0396747        296.04       289.494       38.0755      -2.57106       20.0895             0      -4.28493      -5.16885             0       21.5832       13.7543             0       90.1774             0             0       0.21351   5.28403e-05     0.0711557        113647        103586   3.76946e+06   9.68133e-05
    0.0396496       296.062       289.492       38.0216      -2.48514        20.086             0      -4.27671      -5.17408             0       21.6305       13.7843             0       90.4246             0             0      0.213495   5.30689e-05     0.0712173        113645        103586   3.76935e+06   9.72321e-05
    0.0396246       296.084       289.491       37.9677      -2.39922       20.0825             0      -4.26849      -5.17931             0       21.6778       13.8143             0       90.6718             0             0       0.21348   5.32975e-05     0.0712789        113643        103586   3.76925e+06    9.7651e-05
    0.0395996       296.106        289.49       37.9138       -2.3133        20.079             0      -4.26026      -5.18454             0       21.7251       13.8444             0        90.919             0             0      0.213465   5.35261e-05     0.0713405        113642        103586   3.76915e+06   9.80698e-05
    0.0395746       296.127       289.489       37.8599      -2.22738       20.0754             0      -4.25204      -5.18976             0       21.7724       13.8744             0       91.1662             0             0      0.213451   5.37547e-05      0.071402        113640        103585   3.76905e+06   9.84886e-05
    0.0395495       296.149       289.488        37.806      -2.14146       20.0719             0      -4.24382      -5.19499             0       21.8197       13.9044             0       91.4134             0             0      0.213436   5.39833e-05     0.0714636        113638        103585   3.76894e+06   9.89075e-05
    0.0395245       296.171       289.487       37.7521      -2.05554       20.0684             0      -4.23559      -5.20022             0        21.867       13.9344             0       91.6606             0             0      0.213421   5.42119e-05     0.0715252        113637        103585   3.76884e+06   9.93263e-05
    0.0394995       296.193       289.486       37.6982      -1.96962       20.0649             0      -4.22737      -5.20545             0       21.9143       13.9645             0       91.9078             0             0      0.213407   5.44405e-05     0.0715868        113635        103585   3.76874e+06   9.97452e-05
    0.0394745       296.214       289.485       37.6443       -1.8837       20.0614             0      -4.21915      -5.21067             0       21.9616       13.9945             0        92.155             0             0      0.213392   5.46691e-05     0.0716483        113633        103585   3.76863e+06   0.000100164
    0.0394494       296.236       289.484       37.5904      -1.79778       20.0579             0      -4.21092       -5.2159             0       22.0089       14.0245             0       92.4022             0             0      0.213377   5.48977e-05     0.0717099        113632        103584   3.76853e+06   0.000100583
    0.0394244       296.258       289.482       37.5365      -1.71186       20.0544             0       -4.2027      -5.22113             0       22.0562       14.0545             0       92.6494             0             0      0.213363   5.51263e-05     0.0717715        113630        103584   3.76843e+06   0.000101002
    0.0393994        296.28       289.481       37.4825      -1.62594       20.0508             0      -4.19448      -5.22636             0       22.1035       14.0845             0       92.8966             0             0      0.213348   5.53549e-05     0.0718331        113628        103584   3.76833e+06   0.000101421
    0.0393744       296.301        289.48       37.4286      -1.54002       20.0473             0      -4.18625      -5.23158             0       22.1508       14.1146             0       93.1438             0             0      0.213333   5.55835e-05     0.0718946        113627        103584   3.76822e+06   0.000101839
    0.0393493       296.323       289.479       37.3747       -1.4541       20.0438             0      -4.17803      -5.23681             0       22.1981       14.1446             0        93.391             0             0      0.213318   5.58121e-05     0.0719562        113625        103584   3.76812e+06   0.000102258
    0.0393243       296.345       289.478       37.3208      -1.36818       20.0403             0      -4.16981      -5.24204             0       22.2454       14.1746             0       93.6382             0             0      0.213304   5.60407e-05     0.0720178        113623        103584   3.76802e+06   0.000102677
    0.0392993       296.367       289.477       37.2669      -1.28226       20.0368             0      -4.16158      -5.24726             0       22.2927       14.2046             0       93.8854             0             0      0.213289   5.62693e-05     0.0720794        113622        103583   3.76792e+06   0.000103096
    0.0392743       296.388       289.476        37.213      -1.19634       20.0333             0      -4.15336      -5.25249             0         22.34       14.2346             0       94.1326             0             0      0.213274   5.64979e-05     0.0721409        113620        103583   3.76781e+06   0.000103515
    0.0392492        296.41       289.475       37.1591      -1.11042       20.0297             0      -4.14514      -5.25772             0       22.3873       14.2647             0       94.3798             0             0       0.21326   5.67265e-05     0.0722025        113619        103583   3.76771e+06   0.000103934
    0.0392242       296.432       289.474       37.1052       -1.0245       20.0262             0      -4.13691      -5.26295             0       22.4346       14.2947             0        94.627             0             0      0.213245   5.69551e-05     0.0722641        113617        103583   3.76761e+06   0.000104352
    0.0391992       296.454       289.472       37.0513     -0.938584       20.0227             0      -4.12869      -5.26817             0       22.4819       14.3247             0       94.8742             0             0       0.21323   5.71837e-05     0.0723257        113615        103583   3.76751e+06   0.000104771
    0.0391742       296.475       289.471       36.9974     -0.852664       20.0192             0      -4.12047       -5.2734             0       22.5292       14.3547             0       95.1214             0             0      0.213216   5.74123e-05     0.0723872        113614        103582    3.7674e+06    0.00010519
    0.0391491       296.497        289.47       36.9435     -0.766744       20.0157             0      -4.11224      -5.27863             0       22.5765       14.3848             0       95.3686             0             0      0.213201   5.76409e-05     0.0724488        113612        103582    3.7673e+06   0.000105609
    0.0391241       296.519       289.469       36.8896     -0.680825       20.0122             0      -4.10402      -5.28386             0       22.6238       14.4148             0       95.6158             0             0      0.213186   5.78695e-05     0.0725104        113610        103582    3.7672e+06   0.000106028
    0.0390991        296.54       289.468       36.8357     -0.594905       20.0087             0       -4.0958      -5.28908             0       22.6711       14.4448             0        95.863             0             0      0.213171   5.80981e-05      0.072572        113609        103582    3.7671e+06   0.000106447
    0.0390741       296.562       289.467       36.7818     -0.508985       20.0051             0      -4.08758      -5.29431             0       22.7184       14.4748             0       96.1102             0             0      0.213157   5.83267e-05     0.0726335        113607        103582   3.76699e+06   0.000106865
     0.039049       296.584       289.466       36.7279     -0.423066       20.0016             0      -4.07935      -5.29954             0       22.7656       14.5048             0       96.3574             0             0      0.213142   5.85553e-05     0.0726951        113605        103581   3.76689e+06   0.000107284
     0.039024       296.606       289.465        36.674     -0.337146       19.9981             0      -4.07113      -5.30477             0       22.8129       14.5349             0       96.6046             0             0      0.213127   5.87839e-05     0.0727567        113604        103581   3.76679e+06   0.000107703
     0.038999       296.627       289.464       36.6229     -0.251309       19.9942             0      -4.06267      -5.30991             0       22.8607       14.5652             0       96.8501             0             0      0.213113    5.9014e-05     0.0728182        113602        103581    3.7667e+06   0.000108125
     0.038974       296.648       289.463       36.6399     -0.167446       19.9802             0      -4.04867      -5.31298             0       22.9197       14.6024             0       97.0537             0             0      0.213098    5.9279e-05     0.0728777        113601        103581   3.76686e+06    0.00010861
    0.0389489       296.668       289.463       36.6568    -0.0835839       19.9662             0      -4.03466      -5.31605             0       22.9786       14.6397             0       97.2574             0             0      0.213084    5.9544e-05     0.0729373        113600        103581   3.76703e+06   0.000109096
    0.0389239       296.688       289.463       36.6738    0.00027845       19.9523             0      -4.02065      -5.31912             0       23.0376       14.6769             0        97.461             0             0       0.21307   5.98091e-05     0.0729969        113599        103580   3.76719e+06   0.000109581
    0.0388989       296.709       289.463       36.6907     0.0841408       19.9383             0      -4.00664      -5.32219             0       23.0966       14.7142             0       97.6647             0             0      0.213055   6.00741e-05     0.0730564        113598        103580   3.76736e+06   0.000110067
    0.0388739       296.729       289.463       36.7077      0.168003       19.9243             0      -3.99263      -5.32527             0       23.1556       14.7515             0       97.8683             0             0      0.213041   6.03392e-05      0.073116        113597        103580   3.76753e+06   0.000110553
    0.0388488       296.749       289.463       36.7246      0.251866       19.9104             0      -3.97862      -5.32834             0       23.2145       14.7887             0        98.072             0             0      0.213027   6.06042e-05     0.0731756        113596        103580   3.76769e+06   0.000111038
    0.0388238        296.77       289.463       36.7416      0.335728       19.8964             0      -3.96461      -5.33141             0       23.2735        14.826             0       98.2756             0             0      0.213012   6.08693e-05     0.0732351        113595        103580   3.76786e+06   0.000111524
    0.0387988        296.79       289.463       36.7585       0.41959       19.8824             0       -3.9506      -5.33448             0       23.3325       14.8632             0       98.4793             0             0      0.212998   6.11343e-05     0.0732947        113594        103580   3.76803e+06   0.000112009
    0.0387738        296.81       289.462       36.7755      0.503453       19.8685             0      -3.93659      -5.33755             0       23.3914       14.9005             0       98.6829             0             0      0.212984   6.13994e-05     0.0733542        113592        103579   3.76819e+06   0.000112495
    0.0387487       296.831       289.462       36.7924      0.587315       19.8545             0      -3.92259      -5.34063             0       23.4504       14.9378             0       98.8865             0             0      0.212969   6.16644e-05     0.0734138        113591        103579   3.76836e+06   0.000112981
    0.0387237       296.851       289.462       36.8094      0.671177       19.8405             0      -3.90858       -5.3437             0       23.5094        14.975             0       99.0902             0             0      0.212955   6.19294e-05     0.0734734        113590        103579   3.76852e+06   0.000113466
    0.0386987       296.871       289.462       36.8263       0.75504       19.8266             0      -3.89457      -5.34677             0       23.5683       15.0123             0       99.2938             0             0      0.212941   6.21945e-05     0.0735329        113589        103579   3.76869e+06   0.000113952
    0.0386737       296.891       289.462       36.8433      0.838902       19.8126             0      -3.88056      -5.34984             0       23.6273       15.0495             0       99.4975             0             0      0.212926   6.24595e-05     0.0735925        113588        103579   3.76886e+06   0.000114438
    0.0386486       296.912       289.462       36.8602      0.922765       19.7986             0      -3.86655      -5.35291             0       23.6863       15.0868             0       99.7011             0             0      0.212912   6.27246e-05     0.0736521        113587        103579   3.76902e+06   0.000114923
    0.0386236       296.932       289.462       36.8772       1.00663       19.7847             0      -3.85254      -5.35599             0       23.7453       15.1241             0       99.9048             0             0      0.212898   6.29896e-05     0.0737116        113586        103578   3.76919e+06   0.000115409
    0.0385986       296.952       289.462       36.8941       1.09049       19.7707             0      -3.83853      -5.35906             0       23.8042       15.1613             0       100.108             0             0      0.212883   6.32547e-05     0.0737712        113585        103578   3.76935e+06   0.000115894
    0.0385736       296.973       289.461       36.9111       1.17435       19.7567             0      -3.82452      -5.36213             0       23.8632       15.1986             0       100.312             0             0      0.212869   6.35197e-05     0.0738307        113584        103578   3.76952e+06    0.00011638
    0.0385485       296.993       289.461        36.928       1.25821       19.7428             0      -3.81052       -5.3652             0       23.9222       15.2358             0       100.516             0             0      0.212855   6.37848e-05     0.0738903        113583        103578   3.76969e+06   0.000116866
    0.0385235       297.013       289.461        36.945       1.34208       19.7288             0      -3.79651      -5.36827             0       23.9811       15.2731             0       100.719             0             0       0.21284   6.40498e-05     0.0739499        113582        103578   3.76985e+06   0.000117351
    0.0384985       297.034       289.461       36.9619       1.42594       19.7148             0       -3.7825      -5.37134             0       24.0401       15.3104             0       100.923             0             0      0.212826   6.43149e-05     0.0740094        113581        103578   3.77002e+06   0.000117837
    0.0384735       297.054       289.461       36.9789        1.5098       19.7009             0      -3.76849      -5.37442             0       24.0991       15.3476             0       101.127             0             0      0.212812   6.45799e-05      0.074069        113580        103577   3.77018e+06   0.000118322
    0.0384484       297.074       289.461       36.9958       1.59366       19.6869             0      -3.75448      -5.37749             0        24.158       15.3849             0        101.33             0             0      0.212797   6.48449e-05     0.0741286        113579        103577   3.77035e+06   0.000118808
    0.0384234       297.095       289.461       37.0128       1.67753       19.6729             0      -3.74047      -5.38056             0        24.217       15.4221             0       101.534             0             0      0.212783     6.511e-05     0.0741881        113578        103577   3.77052e+06   0.000119294
    0.0383984       297.115        289.46       37.0297       1.76139        19.659             0      -3.72646      -5.38363             0        24.276       15.4594             0       101.738             0             0      0.212769    6.5375e-05     0.0742477        113577        103577   3.77068e+06   0.000119779
    0.0383734       297.135        289.46       37.0467       1.84525        19.645             0      -3.71245       -5.3867             0        24.335       15.4966             0       101.941             0             0      0.212754   6.56401e-05     0.0743073        113576        103577   3.77085e+06   0.000120265
    0.0383483       297.156        289.46       37.0636       1.92911        19.631             0      -3.69844      -5.38978             0       24.3939       15.5339             0       102.145             0             0       0.21274   6.59051e-05     0.0743668        113574        103577   3.77101e+06    0.00012075
    0.0383233       297.176        289.46       37.0806       2.01298        19.617             0      -3.68444      -5.39285             0       24.4529       15.5712             0       102.349             0             0      0.212726   6.61702e-05     0.0744264        113573        103576   3.77118e+06   0.000121236
    0.0382983       297.196        289.46       37.0975       2.09684       19.6031             0      -3.67043      -5.39592             0       24.5119       15.6084             0       102.552             0             0      0.212712   6.64352e-05     0.0744859        113572        103576   3.77135e+06   0.000121722
    0.0382733       297.217        289.46       37.1145        2.1807       19.5891             0      -3.65642      -5.39899             0       24.5708       15.6457             0       102.756             0             0      0.212697   6.67003e-05     0.0745455        113571        103576   3.77151e+06   0.000122207
    0.0382482       297.237        289.46       37.1314       2.26456       19.5751             0      -3.64241      -5.40206             0       24.6298       15.6829             0       102.959             0             0      0.212683   6.69653e-05     0.0746051        113570        103576   3.77168e+06   0.000122693
    0.0382232       297.257        289.46       37.1484       2.34842       19.5612             0       -3.6284      -5.40514             0       24.6888       15.7202             0       103.163             0             0      0.212669   6.72303e-05     0.0746646        113569        103576   3.77184e+06   0.000123179
    0.0381982       297.277       289.459       37.1653       2.43229       19.5472             0      -3.61439      -5.40821             0       24.7477       15.7575             0       103.367             0             0      0.212654   6.74954e-05     0.0747242        113568        103576   3.77201e+06   0.000123664
    0.0381732       297.298       289.459       37.1823       2.51615       19.5332             0      -3.60038      -5.41128             0       24.8067       15.7947             0        103.57             0             0       0.21264   6.77604e-05     0.0747838        113567        103575   3.77218e+06    0.00012415
    0.0381481       297.318       289.459       37.1992       2.60001       19.5193             0      -3.58637      -5.41435             0       24.8657        15.832             0       103.774             0             0      0.212626   6.80255e-05     0.0748433        113566        103575   3.77234e+06   0.000124635
    0.0381231       297.338       289.459       37.2162       2.68387       19.5053             0      -3.57237      -5.41742             0       24.9247       15.8692             0       103.978             0             0      0.212611   6.82905e-05     0.0749029        113565        103575   3.77251e+06   0.000125121
    0.0380981       297.359       289.459       37.2331       2.76774       19.4913             0      -3.55836      -5.42049             0       24.9836       15.9065             0       104.181             0             0      0.212597   6.85556e-05     0.0749624        113564        103575   3.77268e+06   0.000125607
    0.0380731       297.379       289.459       37.2501        2.8516       19.4774             0      -3.54435      -5.42357             0       25.0426       15.9438             0       104.385             0             0      0.212583   6.88206e-05      0.075022        113563        103575   3.77284e+06   0.000126092
     0.038048       297.399       289.459        37.267       2.93546       19.4634             0      -3.53034      -5.42664             0       25.1016        15.981             0       104.589             0             0      0.212568   6.90857e-05     0.0750816        113562        103575   3.77301e+06   0.000126578
     0.038023        297.42       289.459        37.284       3.01932       19.4494             0      -3.51633      -5.42971             0       25.1605       16.0183             0       104.792             0             0      0.212554   6.93507e-05     0.0751411        113561        103574   3.77317e+06   0.000127063
     0.037998        297.44       289.458       37.3076       3.10237       19.4345             0      -3.50191      -5.43256             0       25.2183        16.055             0       104.991             0             0       0.21254    6.9612e-05     0.0752007        113560        103574   3.77336e+06   0.000127542
     0.037973       297.455        289.46       37.4075       3.17604       19.4081             0      -3.48275      -5.43284             0       25.2626       16.0859             0       105.139             0             0      0.212525   6.98304e-05     0.0752598        113560        103574   3.77381e+06   0.000127942
    0.0379479        297.47       289.461       37.5074       3.24971       19.3817             0      -3.46358      -5.43313             0       25.3069       16.1167             0       105.286             0             0      0.212511   7.00489e-05     0.0753189        113560        103574   3.77425e+06   0.000128343
    0.0379229       297.485       289.462       37.6073       3.32338       19.3553             0      -3.44442      -5.43341             0       25.3511       16.1476             0       105.434             0             0      0.212497   7.02673e-05      0.075378        113560        103574   3.77469e+06   0.000128743
    0.0378979         297.5       289.463       37.7072       3.39704        19.329             0      -3.42526       -5.4337             0       25.3954       16.1785             0       105.581             0             0      0.212483   7.04857e-05     0.0754372        113560        103574   3.77514e+06   0.000129143
    0.0378729       297.515       289.464       37.8071       3.47071       19.3026             0      -3.40609      -5.43398             0       25.4396       16.2093             0       105.729             0             0      0.212469   7.07041e-05     0.0754963        113560        103574   3.77558e+06   0.000129543
    0.0378478        297.53       289.465       37.9069       3.54438       19.2762             0      -3.38693      -5.43426             0       25.4839       16.2402             0       105.876             0             0      0.212455   7.09226e-05     0.0755554        113560        103574   3.77602e+06   0.000129943
    0.0378228       297.545       289.466       38.0068       3.61805       19.2498             0      -3.36777      -5.43455             0       25.5282       16.2711             0       106.024             0             0      0.212441    7.1141e-05     0.0756145        113560        103574   3.77647e+06   0.000130344
    0.0377978        297.56       289.467       38.1067       3.69172       19.2234             0       -3.3486      -5.43483             0       25.5724       16.3019             0       106.171             0             0      0.212427   7.13594e-05     0.0756737        113560        103573   3.77691e+06   0.000130744
    0.0377728       297.576       289.468       38.2066       3.76538       19.1971             0      -3.32944      -5.43512             0       25.6167       16.3328             0       106.319             0             0      0.212413   7.15779e-05     0.0757328        113560        103573   3.77736e+06   0.000131144
    0.0377477       297.591       289.469       38.3065       3.83905       19.1707             0      -3.31028       -5.4354             0        25.661       16.3637             0       106.466             0             0      0.212398   7.17963e-05     0.0757919        113560        103573    3.7778e+06   0.000131544
    0.0377227       297.606        289.47       38.4064       3.91272       19.1443             0      -3.29111      -5.43568             0       25.7052       16.3945             0       106.614             0             0      0.212384   7.20147e-05      0.075851        113560        103573   3.77824e+06   0.000131944