#           y             T         TMean   TPrime2Mean           U_x           U_y           U_z       UMean_x       UMean_y       UMean_z UPrime2Mea... UPrime2Mea... UPrime2Mea... UPrime2Mea... UPrime2Mea... UPrime2Mea...            O2           H2O          C3H8             p         pMean   pPrime2Mean           CO2
         0.02       439.687       362.526       55240.1       20.0962       6.35286             0       21.7524     -0.131457             0       37.2644       -2.9297             0       23.7744             0             0      0.127495    0.00319751       0.41286        113886        103635    3.8744e+06    0.00585843
    0.0201677       435.164       360.111       52700.3       19.9209       6.23393             0       21.7509     -0.115559             0       37.1789      -2.41194             0       24.1313             0             0      0.129983    0.00280453      0.406075        113890        103634   3.87611e+06    0.00513843
    0.0203353       430.641       357.695       50160.6       19.7456       6.11499             0       21.7494    -0.0996613             0       37.0934      -1.89419             0       24.4883             0             0      0.132471    0.00241156      0.399289        113894        103634   3.87781e+06    0.00441843
     0.020503       426.118        355.28       47620.8       19.5702       5.99605             0       21.7479    -0.0837634             0       37.0078      -1.37644             0       24.8452             0             0      0.134959    0.00201859      0.392504        113897        103634   3.87952e+06    0.00369843
    0.0206707       421.594       352.865       45081.1       19.3949       5.87712             0       21.7465    -0.0678654             0       36.9223     -0.858687             0       25.2022             0             0      0.137448    0.00162561      0.385719        113901        103633   3.88123e+06    0.00297842
    0.0208383       417.071       350.449       42541.3       19.2196       5.75818             0        21.745    -0.0519675             0       36.8368     -0.340934             0       25.5591             0             0      0.139936    0.00123264      0.378933        113905        103633   3.88294e+06    0.00225842
     0.021006       412.642        348.05         40027       19.0451       5.64134             0       21.7384    -0.0357107             0       36.7567      0.185574             0       25.9174             0             0      0.142419   0.000849524      0.372069        113908        103632   3.88464e+06    0.00155649
    0.0211737       410.726       346.091       38196.3       18.8938       5.58096             0       21.5952   -0.00979337             0        36.822      0.947778             0       26.3115             0             0      0.144764   0.000731826      0.363079        113908        103632   3.88632e+06    0.00134084
    0.0213413        408.81       344.131       36365.7       18.7425       5.52059             0        21.452     0.0161239             0       36.8873       1.70998             0       26.7056             0             0       0.14711   0.000614128      0.354089        113908        103632   3.88799e+06     0.0011252
     0.021509       406.895       342.172         34535       18.5912       5.46021             0       21.3088     0.0420412             0       36.9527       2.47219             0       27.0998             0             0      0.149456    0.00049643      0.345098        113908        103631   3.88967e+06   0.000909553
    0.0216767       404.979       340.212       32704.3       18.4399       5.39983             0       21.1656     0.0679585             0        37.018       3.23439             0       27.4939             0             0      0.151801   0.000378732      0.336108        113908        103631   3.89134e+06   0.000693908
    0.0218443       403.063       338.253       30873.7       18.2885       5.33945             0       21.0224     0.0938758             0       37.0833       3.99659             0        27.888             0             0      0.154147   0.000261034      0.327118        113908        103630   3.89302e+06   0.000478263
     0.022012       401.164       336.318       29077.3       18.1454       5.29381             0       20.8694      0.118931             0       37.1385       4.76336             0       28.2873             0             0      0.156441   0.000150959      0.318274        113907        103630   3.89469e+06   0.000276585
    0.0221797       399.482       334.701       27725.1       18.1075       5.43925             0       20.5884      0.132819             0       37.0615       5.58925             0       28.7541             0             0      0.158067   0.000139664      0.311317        113903        103630   3.89629e+06   0.000255891
    0.0223473       397.799       333.084       26372.8       18.0697       5.58468             0       20.3074      0.146707             0       36.9845       6.41513             0        29.221             0             0      0.159694   0.000128369       0.30436        113898        103629   3.89788e+06   0.000235196
     0.022515       396.116       331.467       25020.6       18.0319       5.73011             0       20.0264      0.160594             0       36.9075       7.24102             0       29.6878             0             0      0.161321   0.000117074      0.297403        113893        103629   3.89948e+06   0.000214501
    0.0226827       394.433        329.85       23668.4        17.994       5.87554             0       19.7454      0.174482             0       36.8304       8.06691             0       30.1546             0             0      0.162948   0.000105779      0.290446        113888        103628   3.90108e+06   0.000193806
    0.0228504        392.75       328.233       22316.2       17.9562       6.02097             0       19.4645      0.188369             0       36.7534       8.89279             0       30.6214             0             0      0.164574   9.44836e-05      0.283489        113883        103628   3.90267e+06   0.000173112
     0.023018       390.932       326.648       20997.5       17.9197       6.18112             0       19.1728      0.199503             0       36.6507       9.70442             0       31.1136             0             0      0.166176   8.46595e-05      0.276626        113878        103628   3.90427e+06   0.000155112
    0.0231857       387.989       325.326       19957.8       17.8945       6.46349             0       18.7922      0.187761             0        36.334       10.3976             0       31.8161             0             0      0.167571   8.70529e-05      0.270538        113873        103627   3.90582e+06   0.000159497
    0.0233534       385.045       324.004       18918.1       17.8692       6.74586             0       18.4116      0.176019             0       36.0174       11.0908             0       32.5186             0             0      0.168965   8.94463e-05       0.26445        113867        103627   3.90737e+06   0.000163882
     0.023521       382.102       322.683       17878.4       17.8439       7.02823             0        18.031      0.164277             0       35.7007        11.784             0       33.2212             0             0       0.17036   9.18396e-05      0.258361        113861        103626   3.90893e+06   0.000168267
    0.0236887       379.159       321.361       16838.7       17.8186        7.3106             0       17.6505      0.152535             0       35.3841       12.4772             0       33.9237             0             0      0.171755    9.4233e-05      0.252273        113856        103626   3.91048e+06   0.000172652
    0.0238564       376.215        320.04         15799       17.7933       7.59297             0       17.2699      0.140794             0       35.0674       13.1704             0       34.6262             0             0      0.173149   9.66264e-05      0.246185        113850        103626   3.91203e+06   0.000177038
     0.024024       373.207       318.746       14789.7       17.7922       7.88178             0       16.8897      0.124279             0       34.7916       13.8302             0       35.3734             0             0      0.174557   9.87251e-05      0.240042        113844        103625   3.91357e+06   0.000180883
    0.0241917       369.811       317.622       13962.3       17.9351       8.20909             0       16.5123     0.0792262             0       34.7603       14.2906             0       36.3872             0             0      0.176045   9.90618e-05      0.233568        113837        103625   3.91506e+06     0.0001815
    0.0243594       366.415       316.497       13134.8        18.078       8.53639             0       16.1349     0.0341735             0       34.7291       14.7509             0        37.401             0             0      0.177534   9.93985e-05      0.227094        113831        103625   3.91655e+06   0.000182117
     0.024527       363.019       315.373       12307.3        18.221       8.86369             0       15.7574    -0.0108792             0       34.6978       15.2113             0       38.4148             0             0      0.179022   9.97353e-05       0.22062        113824        103624   3.91803e+06   0.000182734
    0.0246947       359.623       314.248       11479.8       18.3639         9.191             0         15.38    -0.0559319             0       34.6665       15.6717             0       39.4286             0             0       0.18051   0.000100072      0.214146        113817        103624   3.91952e+06   0.000183351
    0.0248624       356.227       313.124       10652.3       18.5069        9.5183             0       15.0026     -0.100985             0       34.6352        16.132             0       40.4424             0             0      0.181998   0.000100409      0.207673        113810        103623   3.92101e+06   0.000183967
      0.02503       352.857       312.029       9861.37       18.6628       9.85735             0       14.6408     -0.150933             0       34.6177       16.5712             0       41.5203             0             0      0.183521   0.000100114      0.201056        113804        103623   3.92254e+06   0.000183427
    0.0251977       349.607        311.07       9237.69       18.8781       10.2502             0       14.3511     -0.223318             0       34.6638       16.9133             0       42.8916             0             0        0.1852   9.69241e-05      0.193788        113797        103622    3.9243e+06   0.000177583
    0.0253654       346.358        310.11       8614.01       19.0933       10.6431             0       14.0613     -0.295703             0       34.7098       17.2554             0        44.263             0             0      0.186879   9.37344e-05       0.18652        113790        103621   3.92605e+06   0.000171739
     0.025533       343.108       309.151       7990.33       19.3086       11.0359             0       13.7716     -0.368088             0       34.7558       17.5975             0       45.6343             0             0      0.188558   9.05446e-05      0.179251        113783        103620   3.92781e+06   0.000165895
    0.0257007       339.859       308.192       7366.65       19.5239       11.4288             0       13.4818     -0.440473             0       34.8018       17.9396             0       47.0056             0             0      0.190238   8.73549e-05      0.171983        113777        103620   3.92956e+06   0.000160051
    0.0258684       336.609       307.232       6742.97       19.7392       11.8216             0        13.192     -0.512858             0       34.8479       18.2816             0        48.377             0             0      0.191917   8.41652e-05      0.164714        113770        103619   3.93132e+06   0.000154206
     0.026036       333.367       306.316        6164.7       19.9344       12.1887             0        12.914      -0.58829             0        34.824       18.6132             0       49.8153             0             0      0.193666   8.04848e-05      0.157149        113763        103618   3.93309e+06   0.000147463
    0.0262037       330.151       305.555       5752.31       20.0565       12.4615             0       12.6787     -0.674853             0       34.5447       18.9066             0       51.4983             0             0      0.195669   7.50121e-05      0.148497        113757        103617   3.93493e+06   0.000137436
    0.0263714       326.936       304.795       5339.93       20.1787       12.7344             0       12.4434     -0.761416             0       34.2655          19.2             0       53.1812             0             0      0.197671   6.95394e-05      0.139845        113751        103616   3.93676e+06   0.000127409
     0.026539        323.72       304.034       4927.54       20.3008       13.0072             0       12.2082     -0.847979             0       33.9862       19.4934             0       54.8642             0             0      0.199674   6.40667e-05      0.131194        113744        103615    3.9386e+06   0.000117382
    0.0267067       320.504       303.274       4515.15       20.4229         13.28             0       11.9729     -0.934542             0        33.707       19.7867             0       56.5471             0             0      0.201677    5.8594e-05      0.122542        113738        103613   3.94044e+06   0.000107355
    0.0268744       317.289       302.513       4102.77        20.545       13.5529             0       11.7376       -1.0211             0       33.4277       20.0801             0       58.2301             0             0       0.20368   5.31213e-05      0.113891        113732        103612   3.94228e+06   9.73281e-05
     0.027042       314.331       301.808       3734.66       20.5998       13.7773             0       11.4959      -1.10851             0       33.1392       20.3542             0       59.9762             0             0       0.20555   4.79123e-05      0.105813        113727        103611   3.94411e+06   8.77842e-05
    0.0272097       312.144       301.268       3498.86       20.4534       13.8573             0       11.2352      -1.19842             0       32.8229       20.5706             0       61.9113             0             0      0.207024    4.3491e-05       0.09945        113725        103610   3.94593e+06   7.96837e-05
    0.0273774       309.957       300.728       3263.06        20.307       13.9372             0       10.9745      -1.28833             0       32.5067       20.7871             0       63.8463             0             0      0.208498   3.90698e-05     0.0930871        113724        103608   3.94776e+06   7.15832e-05
     0.027545        307.77       300.188       3027.27       20.1606       14.0172             0       10.7138      -1.37824             0       32.1905       21.0036             0       65.7813             0             0      0.209972   3.46486e-05     0.0867242        113722        103607   3.94958e+06   6.34827e-05
    0.0277127       305.583       299.648       2791.47       20.0142       14.0971             0       10.4531      -1.46815             0       31.8742         21.22             0       67.7163             0             0      0.211446   3.02274e-05     0.0803613        113721        103605    3.9514e+06   5.53822e-05
    0.0278804       303.395       299.108       2555.67       19.8678        14.177             0       10.1924      -1.55806             0        31.558       21.4365             0       69.6513             0             0      0.212919   2.58062e-05     0.0739984        113720        103604   3.95322e+06   4.72817e-05
     0.028048       301.529       298.612        2347.3       19.6405       14.1907             0       9.92625      -1.65024             0       31.2414       21.6143             0       71.6007             0             0      0.214124   2.21085e-05     0.0688005        113720        103603   3.95481e+06   4.05069e-05
    0.0282157       300.459       298.224        2207.2       19.2118       14.0393             0       9.64665      -1.74804             0       30.9238       21.6959             0       73.5857             0             0      0.214657   2.02121e-05     0.0665028        113725        103601    3.9558e+06   3.70322e-05
    0.0283834       299.389       297.837       2067.11       18.7831       13.8879             0       9.36704      -1.84585             0       30.6063       21.7775             0       75.5708             0             0       0.21519   1.83156e-05     0.0642051        113730        103599   3.95679e+06   3.35576e-05
    0.0285511       298.319       297.449       1927.01       18.3544       13.7365             0       9.08744      -1.94365             0       30.2888       21.8591             0       77.5558             0             0      0.215723   1.64192e-05     0.0619074        113735        103598   3.95779e+06    3.0083e-05
    0.0287187        297.25       297.061       1786.92       17.9257       13.5852             0       8.80783      -2.04146             0       29.9713       21.9407             0       79.5408             0             0      0.216256   1.45227e-05     0.0596097        113740        103596   3.95878e+06   2.66084e-05
    0.0288864        296.18       296.673       1646.82        17.497       13.4338             0       8.52823      -2.13927             0       29.6538       22.0223             0       81.5259             0             0      0.216788   1.26263e-05      0.057312        113745        103595   3.95977e+06   2.31338e-05
    0.0290541       295.321       296.316       1522.86       17.0132        13.236             0       8.24713      -2.23966             0       29.3239       22.0423             0       83.4478             0             0      0.217165   1.11144e-05      0.055691        113752        103593   3.96055e+06   2.03636e-05
    0.0292217       294.905       296.023        1432.8       16.4133       12.9408             0       7.96291      -2.34548             0        28.968       21.9328             0        85.237             0             0      0.217212   1.04107e-05     0.0554926        113763        103592   3.96089e+06   1.90743e-05
    0.0293894        294.49        295.73       1342.75       15.8135       12.6455             0        7.6787       -2.4513             0        28.612       21.8234             0       87.0262             0             0      0.217259   9.70699e-06     0.0552942        113775        103590   3.96123e+06    1.7785e-05
    0.0295571       294.074       295.437       1252.69       15.2136       12.3503             0       7.39448      -2.55713             0       28.2561       21.7139             0       88.8155             0             0      0.217307   9.00328e-06     0.0550958        113786        103588   3.96157e+06   1.64957e-05
    0.0297247       293.658       295.144       1162.64       14.6137       12.0551             0       7.11026      -2.66295             0       27.9002       21.6044             0       90.6047             0             0      0.217354   8.29958e-06     0.0548974        113797        103587   3.96191e+06   1.52064e-05
    0.0298924       293.242        294.85       1072.58       14.0139       11.7598             0       6.82604      -2.76877             0       27.5443       21.4949             0       92.3939             0             0      0.217401   7.59587e-06     0.0546989        113808        103585   3.96225e+06   1.39171e-05
    0.0300601       292.944       294.581       993.784       13.4794       11.4702             0       6.54442      -2.87575             0       27.2263       21.3293             0       94.0458             0             0      0.217392    7.1728e-06     0.0547418        113819        103584    3.9622e+06   1.31419e-05
    0.0302277       292.857       294.354       935.144       13.0622       11.1906             0       6.26747      -2.98481             0       26.9761        21.063             0       95.4516             0             0      0.217283   7.25254e-06      0.055217        113829        103583   3.96144e+06    1.3288e-05
    0.0303954       292.771       294.128       876.505       12.6449       10.9111             0       5.99052      -3.09387             0       26.7259       20.7968             0       96.8574             0             0      0.217174   7.33227e-06     0.0556922        113840        103581   3.96068e+06   1.34341e-05
    0.0305631       292.684       293.901       817.866       12.2276       10.6315             0       5.71357      -3.20292             0       26.4757       20.5305             0       98.2632             0             0      0.217064   7.41201e-06     0.0561674        113850        103580   3.95993e+06   1.35802e-05
    0.0307307       292.598       293.675       759.226       11.8104        10.352             0       5.43663      -3.31198             0       26.2255       20.2642             0        99.669             0             0      0.216955   7.49175e-06     0.0566425        113860        103579   3.95917e+06   1.37263e-05
    0.0308984       292.511       293.448       700.587       11.3931       10.0724             0       5.15968      -3.42103             0       25.9753       19.9979             0       101.075             0             0      0.216845   7.57148e-06     0.0571177        113870        103577   3.95841e+06   1.38724e-05
    0.0310661       292.471       293.242       650.117       11.0641       9.85893             0       4.88811      -3.52794             0        25.797       19.7058             0       102.322             0             0      0.216724   7.89341e-06     0.0576409        113879        103576    3.9575e+06   1.44622e-05
    0.0312337       292.502       293.068       612.209       10.8709        9.7471             0       4.62482      -3.63154             0       25.7294       19.3739             0       103.327             0             0      0.216585   8.58782e-06     0.0582379        113885        103575   3.95637e+06   1.57345e-05
    0.0314014       292.532       292.894       574.301       10.6777       9.63526             0       4.36153      -3.73515             0       25.6618        19.042             0       104.331             0             0      0.216446   9.28222e-06     0.0588349        113891        103574   3.95524e+06   1.70068e-05
    0.0315691       292.563        292.72       536.394       10.4845       9.52343             0       4.09824      -3.83875             0       25.5942         18.71             0       105.335             0             0      0.216307   9.97662e-06     0.0594319        113898        103573   3.95411e+06    1.8279e-05
    0.0317367       292.594       292.546       498.486       10.2913        9.4116             0       3.83495      -3.94236             0       25.5265       18.3781             0       106.339             0             0      0.216168    1.0671e-05      0.060029        113904        103572   3.95298e+06   1.95513e-05
    0.0319044       292.625       292.372       460.578        10.098       9.29977             0       3.57166      -4.04596             0       25.4589       18.0462             0       107.343             0             0      0.216029   1.13654e-05      0.060626        113910        103571   3.95185e+06   2.08236e-05
    0.0320721       292.707       292.218       428.865       9.97619       9.29239             0       3.31611        -4.144             0        25.476       17.7409             0       108.221             0             0      0.215868   1.26835e-05     0.0613118        113913        103570   3.95038e+06   2.32386e-05
    0.0322397       292.858       292.089       405.368         9.949       9.42356             0       3.07083      -4.23466             0       25.6055       17.4711             0       108.932             0             0      0.215679   1.48289e-05     0.0621153        113911        103569   3.94846e+06   2.71693e-05
    0.0324074       293.009       291.961       381.871       9.92181       9.55473             0       2.82556      -4.32531             0       25.7351       17.2012             0       109.642             0             0      0.215489   1.69743e-05     0.0629188        113910        103569   3.94654e+06      3.11e-05
    0.0325751        293.16       291.833       358.374       9.89462        9.6859             0       2.58028      -4.41597             0       25.8646       16.9313             0       110.352             0             0      0.215299   1.91196e-05     0.0637224        113908        103568   3.94462e+06   3.50307e-05
    0.0327427       293.311       291.704       334.877       9.86742       9.81707             0       2.33501      -4.50663             0       25.9941       16.6614             0       111.062             0             0      0.215109    2.1265e-05     0.0645259        113907        103567    3.9427e+06   3.89614e-05
    0.0329104       293.462       291.576        311.38       9.84023       9.94824             0       2.08973      -4.59729             0       26.1236       16.3916             0       111.773             0             0      0.214919   2.34104e-05     0.0653294        113905        103566   3.94078e+06   4.28921e-05
    0.0330781       293.631       291.465       292.073        9.7905       10.1374             0       1.85409      -4.68085             0       26.2679       16.1882             0       112.365             0             0      0.214733    2.5775e-05     0.0661149        113902        103566   3.93867e+06   4.72247e-05
    0.0332457       293.822       291.372       277.574        9.7149        10.393             0       1.62952      -4.75626             0        26.429       16.0612             0       112.822             0             0      0.214551   2.83913e-05     0.0668797        113896        103565   3.93634e+06   5.20182e-05
    0.0334134       294.012        291.28       263.074        9.6393       10.6486             0       1.40495      -4.83167             0       26.5902       15.9341             0       113.279             0             0      0.214369   3.10076e-05     0.0676444        113891        103565   3.93402e+06   5.68118e-05
    0.0335811       294.203       291.188       248.575        9.5637       10.9042             0       1.18037      -4.90707             0       26.7514       15.8071             0       113.736             0             0      0.214187    3.3624e-05     0.0684092        113886        103564   3.93169e+06   6.16054e-05
    0.0337487       294.393       291.096       234.075        9.4881       11.1598             0      0.955799      -4.98248             0       26.9126         15.68             0       114.193             0             0      0.214005   3.62403e-05     0.0691739        113880        103564   3.92936e+06   6.63989e-05
    0.0339164       294.584       291.003       219.576        9.4125       11.4154             0      0.731225      -5.05789             0       27.0737        15.553             0       114.651             0             0      0.213822   3.88566e-05     0.0699387        113875        103563   3.92703e+06   7.11925e-05
    0.0340841       294.748       290.925       207.862       9.27386        11.739             0      0.518165      -5.12419             0        27.182       15.5189             0       115.015             0             0      0.213694   4.09553e-05      0.070477        113867        103563   3.92417e+06   7.50377e-05
    0.0342518       294.885        290.86       198.918       9.07256       12.1301             0      0.316552      -5.18144             0       27.2378       15.5771             0       115.286             0             0      0.213618   4.25395e-05     0.0707902        113858        103563   3.92078e+06   7.79403e-05
    0.0344194       295.023       290.795       189.974       8.87126       12.5213             0      0.114939      -5.23869             0       27.2935       15.6354             0       115.558             0             0      0.213542   4.41237e-05     0.0711034        113849        103563   3.91739e+06   8.08428e-05
    0.0345871        295.16        290.73        181.03       8.66996       12.9124             0    -0.0866739      -5.29594             0       27.3492       15.6936             0        115.83             0             0      0.213466   4.57079e-05     0.0714166        113840        103562   3.91399e+06   8.37454e-05
    0.0347548       295.298       290.665       172.086       8.46865       13.3036             0     -0.288287      -5.35318             0       27.4049       15.7519             0       116.101             0             0      0.213391   4.72921e-05     0.0717299        113830        103562    3.9106e+06   8.66479e-05
    0.0349224       295.435         290.6       163.142       8.26735       13.6947             0       -0.4899      -5.41043             0       27.4607       15.8101             0       116.373             0             0      0.213315   4.88763e-05     0.0720431        113821        103562   3.90721e+06   8.95504e-05
    0.0350901       295.538       290.546       156.039       8.04621       14.0592             0      -0.68119       -5.4583             0       27.4579       15.9151             0       116.466             0             0      0.213279   4.99343e-05     0.0721897        113812        103562   3.90351e+06    9.1489e-05
    0.0352578        295.61       290.502       150.523         7.808       14.4006             0     -0.863589      -5.49808             0       27.4048       16.0602             0       116.407             0             0      0.213276   5.05394e-05     0.0721929        113803        103562   3.89954e+06   9.25976e-05