#           y             T         TMean   TPrime2Mean           U_x           U_y           U_z       UMean_x       UMean_y       UMean_z UPrime2Mea... UPrime2Mea... UPrime2Mea... UPrime2Mea... UPrime2Mea... UPrime2Mea...            O2           H2O          C3H8             p         pMean   pPrime2Mean           CO2
         0.03       1899.99       403.599        168535       72.8726      -12.4361             0       8.18918       1.10939             0       242.754      -12.0976             0       52.8436             0             0   2.45764e-09     0.0922849     0.0526752        112603        103588   3.16867e+06      0.169083
    0.0301702       1899.99       403.446        168354       73.0668      -12.2854             0       8.16376       1.16498             0        243.39      -11.1404             0       52.7848             0             0   2.47685e-09     0.0922853      0.052671        112603        103589   3.16864e+06      0.169084
    0.0303403       1899.99       403.293        168172       73.2611      -12.1347             0       8.13834       1.22057             0       244.027      -10.1832             0        52.726             0             0   2.49605e-09     0.0922857     0.0526669        112604        103589   3.16861e+06      0.169085
    0.0305105       1899.99        403.14        167990       73.4553       -11.984             0       8.11293       1.27616             0       244.663      -9.22597             0       52.6672             0             0   2.51525e-09     0.0922861     0.0526627        112604        103589   3.16858e+06      0.169085
    0.0306807       1899.99       402.987        167809       73.6496      -11.8333             0       8.08751       1.33175             0       245.299      -8.26876             0       52.6084             0             0   2.53445e-09     0.0922865     0.0526585        112605        103590   3.16855e+06      0.169086
    0.0308509       1899.98       402.834        167627       73.8438      -11.6826             0        8.0621       1.38733             0       245.936      -7.31155             0       52.5495             0             0   2.55365e-09      0.092287     0.0526544        112605        103590   3.16852e+06      0.169087
     0.031021       1899.98       402.679        167442        74.041      -11.5341             0       8.03739       1.44286             0       246.469       -6.3818             0       52.4833             0             0   2.59969e-09     0.0922871     0.0526527        112606        103590   3.16854e+06      0.169087
    0.0311912       1899.98       402.509        167233        74.259      -11.4011             0        8.0177       1.49796             0       246.273      -5.64696             0       52.3643             0             0    2.8361e-09     0.0922856     0.0526687        112606        103591   3.16888e+06      0.169084
    0.0313614       1899.97       402.339        167024        74.477      -11.2681             0       7.99801       1.55307             0       246.076      -4.91212             0       52.2452             0             0   3.07251e-09      0.092284     0.0526847        112607        103591   3.16922e+06      0.169081
    0.0315315       1899.97        402.17        166815        74.695      -11.1352             0       7.97833       1.60817             0        245.88      -4.17728             0       52.1262             0             0   3.30893e-09     0.0922824     0.0527007        112608        103592   3.16957e+06      0.169079
    0.0317017       1899.96           402        166607        74.913      -11.0022             0       7.95864       1.66328             0       245.683      -3.44245             0       52.0072             0             0   3.54534e-09     0.0922809     0.0527167        112608        103592   3.16991e+06      0.169076
    0.0318719       1899.96        401.83        166398        75.131      -10.8692             0       7.93896       1.71838             0       245.487      -2.70761             0       51.8881             0             0   3.78175e-09     0.0922793     0.0527327        112609        103593   3.17025e+06      0.169073
     0.032042       1899.95       401.656        166181       75.3336       -10.733             0       7.91991       1.77319             0       245.053      -1.98891             0       51.7483             0             0   3.97311e-09     0.0922777     0.0527491        112610        103593   3.17069e+06       0.16907
    0.0322122       1899.94       401.468        165942       75.4894       -10.587             0        7.9028       1.82709             0       243.897      -1.31943             0       51.5454             0             0   4.02714e-09      0.092276      0.052767        112611        103594   3.17143e+06      0.169067
    0.0323824       1899.93        401.28        165703       75.6452      -10.4409             0        7.8857       1.88099             0       242.742     -0.649938             0       51.3424             0             0   4.08117e-09     0.0922742     0.0527849        112612        103595   3.17216e+06      0.169064
    0.0325526       1899.92       401.093        165464        75.801      -10.2949             0       7.86859       1.93489             0       241.586     0.0195499             0       51.1395             0             0    4.1352e-09     0.0922725     0.0528027        112613        103595    3.1729e+06       0.16906
    0.0327227       1899.91       400.905        165225       75.9568      -10.1488             0       7.85148       1.98879             0        240.43      0.689038             0       50.9365             0             0   4.18923e-09     0.0922708     0.0528206        112614        103596   3.17363e+06      0.169057
    0.0328929       1899.91       400.717        164986       76.1126      -10.0028             0       7.83438        2.0427             0       239.274       1.35853             0       50.7336             0             0   4.24327e-09      0.092269     0.0528384        112615        103597   3.17437e+06      0.169054
    0.0330631        1899.9        400.52        164731        76.242      -9.85932             0       7.81776       2.09481             0       237.996       1.96584             0       50.5056             0             0   4.21798e-09     0.0922678     0.0528509        112616        103597   3.17521e+06      0.169052
    0.0332332       1899.88       400.309        164451       76.3265      -9.72024             0       7.80197        2.1439             0       236.509       2.46757             0        50.235             0             0   4.05798e-09     0.0922675     0.0528544        112618        103598   3.17624e+06      0.169051
    0.0334034       1899.87       400.097        164170        76.411      -9.58116             0       7.78617       2.19299             0       235.022       2.96929             0       49.9645             0             0   3.89799e-09     0.0922671     0.0528579        112620        103599   3.17726e+06      0.169051
    0.0335736       1899.86       399.886        163889       76.4955      -9.44207             0       7.77038       2.24208             0       233.535       3.47101             0        49.694             0             0   3.73799e-09     0.0922668     0.0528614        112622        103600   3.17828e+06       0.16905
    0.0337437       1899.85       399.675        163608         76.58      -9.30299             0       7.75459       2.29116             0       232.049       3.97274             0       49.4235             0             0   3.57799e-09     0.0922665     0.0528648        112623        103601   3.17931e+06      0.169049
    0.0339139       1899.84       399.463        163327       76.6645       -9.1639             0        7.7388       2.34025             0       230.562       4.47446             0        49.153             0             0   3.41799e-09     0.0922661     0.0528683        112625        103601   3.18033e+06      0.169049
    0.0340841       1899.83       399.241        163027        76.742      -9.02405             0       7.72317       2.38649             0       229.006        4.9314             0       48.8417             0             0   3.23105e-09     0.0922668     0.0528617        112627        103602   3.18144e+06       0.16905
    0.0342543       1899.82       399.007        162706       76.8125       -8.8834             0        7.7077       2.42982             0       227.379        5.3425             0       48.4887             0             0   3.01653e-09     0.0922684     0.0528447        112630        103603   3.18262e+06      0.169053
    0.0344244       1899.81       398.773        162385        76.883      -8.74275             0       7.69223       2.47315             0       225.753       5.75359             0       48.1357             0             0   2.80201e-09     0.0922701     0.0528278        112632        103604    3.1838e+06      0.169056
    0.0345946        1899.8       398.539        162064       76.9534       -8.6021             0       7.67677       2.51648             0       224.126       6.16469             0       47.7827             0             0   2.58748e-09     0.0922717     0.0528108        112635        103605   3.18499e+06      0.169059
    0.0347648       1899.79       398.305        161744       77.0239      -8.46145             0        7.6613        2.5598             0         222.5       6.57578             0       47.4297             0             0   2.37296e-09     0.0922734     0.0527938        112637        103606   3.18617e+06      0.169062
    0.0349349       1899.78       398.071        161423       77.0944       -8.3208             0       7.64583       2.60313             0       220.873       6.98688             0       47.0767             0             0   2.15843e-09      0.092275     0.0527769        112640        103607   3.18735e+06      0.169065
    0.0351051       1899.77       397.827        161084       77.1423      -8.18678             0       7.63188       2.64128             0       219.221       7.29442             0       46.6741             0             0   2.07245e-09     0.0922783     0.0527433        112643        103608    3.1886e+06      0.169071
    0.0352753       1899.76       397.577        160733       77.1762      -8.05685             0       7.61886       2.67623             0       217.552       7.53786             0       46.2408             0             0   2.06604e-09     0.0922826     0.0526994        112646        103609    3.1899e+06      0.169079
    0.0354454       1899.75       397.326        160383       77.2102      -7.92693             0       7.60584       2.71118             0       215.884        7.7813             0       45.8075             0             0   2.05963e-09     0.0922868     0.0526556        112649        103610   3.19119e+06      0.169087
    0.0356156       1899.74       397.076        160032       77.2441      -7.79701             0       7.59282       2.74613             0       214.216       8.02473             0       45.3742             0             0   2.05321e-09     0.0922911     0.0526117        112652        103611   3.19248e+06      0.169095
    0.0357858       1899.73       396.825        159682       77.2781      -7.66709             0        7.5798       2.78108             0       212.547       8.26817             0       44.9409             0             0    2.0468e-09     0.0922954     0.0525678        112655        103612   3.19377e+06      0.169102
     0.035956       1899.72       396.575        159331        77.312      -7.53716             0       7.56678       2.81603             0       210.879       8.51161             0       44.5076             0             0   2.04039e-09     0.0922997     0.0525239        112658        103613   3.19506e+06       0.16911
    0.0361261       1899.71       396.307        158951       77.3276      -7.40294             0       7.55673       2.84496             0       209.212       8.66596             0       44.0295             0             0   1.97919e-09     0.0923058     0.0524616        112662        103615   3.19637e+06      0.169121
    0.0362963        1899.7       396.034        158560       77.3367      -7.26721             0       7.54771        2.8718             0       207.546       8.78921             0       43.5358             0             0   1.89886e-09     0.0923125     0.0523927        112666        103616   3.19767e+06      0.169134
    0.0364665        1899.7       395.761        158170       77.3459      -7.13148             0       7.53869       2.89864             0       205.879       8.91245             0        43.042             0             0   1.81852e-09     0.0923192     0.0523239        112669        103617   3.19897e+06      0.169146
    0.0366366       1899.69       395.488        157779        77.355      -6.99574             0       7.52966       2.92548             0       204.213        9.0357             0       42.5483             0             0   1.73819e-09     0.0923259      0.052255        112673        103618   3.20027e+06      0.169158
    0.0368068       1899.68       395.215        157388       77.3641      -6.86001             0       7.52064       2.95232             0       202.546       9.15894             0       42.0546             0             0   1.65786e-09     0.0923326     0.0521861        112677        103619   3.20158e+06      0.169171
     0.036977       1899.67       394.942        156998       77.3733      -6.72428             0       7.51162       2.97915             0        200.88       9.28219             0       41.5608             0             0   1.57752e-09     0.0923393     0.0521173        112680        103621   3.20288e+06      0.169183
    0.0371471       1899.67       394.617        156512       77.3516      -6.60311             0       7.50679       2.99657             0       199.204        9.2885             0       41.0181             0             0   1.54493e-09      0.092348      0.052028        112684        103622   3.20422e+06      0.169199
    0.0373173       1899.66       394.283        156013        77.325      -6.48421             0       7.50261        3.0125             0       197.527       9.27653             0       40.4677             0             0   1.51981e-09      0.092357     0.0519355        112688        103623   3.20556e+06      0.169215
    0.0374875       1899.66        393.95        155513       77.2985      -6.36531             0       7.49843       3.02844             0        195.85       9.26455             0       39.9173             0             0   1.49468e-09      0.092366     0.0518431        112692        103624    3.2069e+06      0.169232
    0.0376577       1899.65       393.616        155013       77.2719      -6.24642             0       7.49425       3.04438             0       194.173       9.25257             0       39.3669             0             0   1.46956e-09      0.092375     0.0517506        112696        103626   3.20824e+06      0.169248
    0.0378278       1899.65       393.282        154513       77.2454      -6.12752             0       7.49007       3.06032             0       192.495       9.24059             0       38.8165             0             0   1.44444e-09      0.092384     0.0516581        112700        103627   3.20958e+06      0.169265
     0.037998       1899.64       392.949        154013       77.2188      -6.00862             0       7.48589       3.07626             0       190.818       9.22861             0       38.2661             0             0   1.41931e-09      0.092393     0.0515656        112704        103628   3.21092e+06      0.169281
    0.0381682       1899.63       392.518        153343       77.1641      -5.88138             0       7.48698       3.08001             0       189.057       9.20587             0       37.6586             0             0   1.40858e-09     0.0924064     0.0514281        112708        103630   3.21231e+06      0.169306
    0.0383383       1899.63       392.086        152671       77.1091      -5.75405             0       7.48813       3.08363             0       187.294       9.18299             0       37.0504             0             0   1.39802e-09     0.0924199     0.0512901        112713        103631    3.2137e+06       0.16933
    0.0385085       1899.62       391.655        151999       77.0541      -5.62671             0       7.48928       3.08724             0       185.531       9.16012             0       36.4423             0             0   1.38746e-09     0.0924333      0.051152        112717        103632   3.21509e+06      0.169355
    0.0386787       1899.61       391.223        151327        76.999      -5.49937             0       7.49043       3.09085             0       183.769       9.13724             0       35.8341             0             0    1.3769e-09     0.0924468      0.051014        112721        103634   3.21647e+06       0.16938
    0.0388488        1899.6       390.791        150655        76.944      -5.37204             0       7.49157       3.09446             0       182.006       9.11437             0       35.2259             0             0   1.36634e-09     0.0924602      0.050876        112726        103635   3.21786e+06      0.169404
     0.039019       1899.59        390.35        149967        76.885      -5.24761             0       7.49325       3.09654             0       180.237        9.0932             0        34.611             0             0   1.35599e-09     0.0924747     0.0507278        112730        103636   3.21926e+06      0.169431
    0.0391892       1899.57       389.832        149153       76.7943      -5.14635             0       7.49909       3.08645             0       178.415       9.08558             0        33.942             0             0   1.34729e-09      0.092497     0.0504986        112735        103638   3.22069e+06      0.169472
    0.0393594       1899.55       389.314        148339       76.7037      -5.04509             0       7.50493       3.07636             0       176.593       9.07795             0        33.273             0             0   1.33859e-09     0.0925193     0.0502694        112740        103639   3.22213e+06      0.169513
    0.0395295       1899.53       388.797        147525        76.613      -4.94383             0       7.51077       3.06626             0       174.772       9.07033             0        32.604             0             0   1.32989e-09     0.0925416     0.0500402        112744        103641   3.22357e+06      0.169554
    0.0396997        1899.5       388.279        146711       76.5224      -4.84257             0       7.51661       3.05617             0        172.95       9.06271             0        31.935             0             0    1.3212e-09      0.092564      0.049811        112749        103642   3.22501e+06      0.169594
    0.0398699       1899.48       387.761        145897       76.4317      -4.74131             0       7.52246       3.04608             0       171.128       9.05509             0        31.266             0             0    1.3125e-09     0.0925863     0.0495819        112754        103643   3.22645e+06      0.169635
      0.04004       1899.46       387.238        145078       76.3381      -4.63761             0       7.52923       3.03351             0       169.326       9.05535             0       30.5872             0             0   1.29984e-09     0.0926116     0.0493218        112759        103645   3.22788e+06      0.169682
    0.0402102       1899.44       386.695        144244       76.2351      -4.52601             0       7.53904       3.01289             0       167.588       9.08124             0       29.8762             0             0   1.27428e-09     0.0926468     0.0489612        112765        103646    3.2293e+06      0.169746
    0.0403804       1899.42       386.153        143410        76.132      -4.41442             0       7.54885       2.99226             0       165.851       9.10713             0       29.1653             0             0   1.24873e-09     0.0926819     0.0486006        112771        103648   3.23072e+06      0.169811
    0.0405506       1899.39       385.611        142576       76.0289      -4.30282             0       7.55866       2.97164             0       164.113       9.13302             0       28.4544             0             0   1.22318e-09      0.092717     0.0482401        112776        103649   3.23214e+06      0.169875
    0.0407207       1899.37       385.069        141742       75.9258      -4.19122             0       7.56847       2.95101             0       162.375       9.15891             0       27.7435             0             0   1.19763e-09     0.0927522     0.0478795        112782        103651   3.23356e+06      0.169939
    0.0408909       1899.35       384.526        140908       75.8227      -4.07962             0       7.57828       2.93039             0       160.637        9.1848             0       27.0326             0             0   1.17208e-09     0.0927873      0.047519        112788        103652   3.23498e+06      0.170004
    0.0410611       1899.33       383.957        140031       75.7119      -3.98145             0       7.58874       2.90688             0       158.953       9.18346             0       26.3212             0             0   1.14565e-09     0.0928245     0.0471366        112794        103654   3.23635e+06      0.170072
    0.0412312       1899.33       383.341        139077       75.5874      -3.90727             0       7.60036       2.87822             0       157.367       9.13344             0       25.6088             0             0   1.11763e-09     0.0928656     0.0467155        112800        103655   3.23762e+06      0.170147
    0.0414014       1899.33       382.725        138123       75.4629      -3.83309             0       7.61198       2.84955             0       155.781       9.08342             0       24.8965             0             0   1.08962e-09     0.0929066     0.0462943        112807        103656   3.23889e+06      0.170222
    0.0415716       1899.32       382.108        137169       75.3384       -3.7589             0       7.62359       2.82089             0       154.195       9.03341             0       24.1841             0             0   1.06161e-09     0.0929476     0.0458731        112813        103658   3.24015e+06      0.170297
    0.0417417       1899.32       381.492        136215       75.2139      -3.68472             0       7.63521       2.79223             0       152.608       8.98339             0       23.4718             0             0   1.03359e-09     0.0929887     0.0454519        112820        103659   3.24142e+06      0.170373
    0.0419119       1899.31       380.875        135260       75.0894      -3.61054             0       7.64683       2.76357             0       151.022       8.93337             0       22.7594             0             0   1.00558e-09     0.0930297     0.0450307        112826        103661   3.24269e+06      0.170448
    0.0420821       1899.31       380.186        134197       74.9644      -3.53261             0       7.65765       2.73246             0       149.592       8.83687             0       22.0567             0             0   9.81269e-10     0.0930684     0.0446333        112833        103662   3.24392e+06      0.170519
    0.0422523       1899.31       379.418        133015       74.8389      -3.45065             0        7.6676       2.69872             0        148.33       8.69048             0       21.3643             0             0   9.60933e-10     0.0931047     0.0442613        112841        103664   3.24512e+06      0.170585
    0.0424224       1899.31        378.65        131833       74.7133      -3.36869             0       7.67755       2.66499             0       147.067       8.54409             0       20.6719             0             0   9.40596e-10     0.0931409     0.0438893        112848        103665   3.24632e+06      0.170652
    0.0425926        1899.3       377.881        130652       74.5878      -3.28673             0       7.68751       2.63125             0       145.805        8.3977             0       19.9795             0             0   9.20259e-10     0.0931771     0.0435173        112855        103667   3.24752e+06      0.170718
    0.0427628        1899.3       377.113        129470       74.4623      -3.20477             0       7.69746       2.59752             0       144.542       8.25131             0       19.2871             0             0   8.99923e-10     0.0932134     0.0431453        112863        103668   3.24872e+06      0.170784
    0.0429329        1899.3       376.345        128289       74.3368      -3.12281             0       7.70742       2.56379             0        143.28       8.10492             0       18.5947             0             0   8.79586e-10     0.0932496     0.0427733        112870        103670   3.24992e+06      0.170851
    0.0431031        1899.3       375.547        127111       74.2073       -3.0683             0       7.71387       2.52546             0       142.206       7.85023             0       17.9359             0             0    8.5713e-10     0.0932856     0.0424044        112877        103671   3.25109e+06      0.170917
    0.0432733        1899.3        374.73        125934       74.0752      -3.03165             0       7.71804       2.48415             0       141.256        7.5251             0       17.2991             0             0   8.33295e-10     0.0933213     0.0420375        112885        103672   3.25224e+06      0.170982
    0.0434434       1899.31       373.912        124758       73.9432      -2.99501             0       7.72222       2.44285             0       140.307       7.19997             0       16.6622             0             0   8.09459e-10     0.0933571     0.0416705        112893        103674    3.2534e+06      0.171048
    0.0436136       1899.31       373.095        123582       73.8111      -2.95836             0       7.72639       2.40154             0       139.357       6.87484             0       16.0253             0             0   7.85624e-10     0.0933928     0.0413036        112900        103675   3.25455e+06      0.171113
    0.0437838       1899.32       372.278        122406       73.6791      -2.92171             0       7.73057       2.36023             0       138.407       6.54971             0       15.3884             0             0   7.61789e-10     0.0934286     0.0409367        112908        103677    3.2557e+06      0.171179
     0.043954       1899.32        371.46        121230        73.547      -2.88506             0       7.73474       2.31892             0       137.457       6.22458             0       14.7515             0             0   7.37953e-10     0.0934643     0.0405697        112915        103678   3.25685e+06      0.171244
    0.0441241       1899.33       370.661        120122       73.4194      -2.84033             0       7.73416       2.27124             0       136.651       5.81932             0       14.1503             0             0    7.1324e-10     0.0935076     0.0401252        112923        103679   3.25797e+06      0.171323
    0.0442943       1899.35       369.868        119040       73.2935      -2.79261             0       7.73181        2.2212             0         135.9       5.38434             0       13.5623             0             0   6.88202e-10     0.0935538     0.0396519        112930        103681   3.25907e+06      0.171408
    0.0444645       1899.36       369.075        117958       73.1676      -2.74488             0       7.72946       2.17116             0       135.148       4.94936             0       12.9743             0             0   6.63163e-10     0.0935999     0.0391786        112937        103682   3.26018e+06      0.171492
    0.0446346       1899.37       368.282        116876       73.0417      -2.69716             0       7.72711       2.12112             0       134.396       4.51438             0       12.3863             0             0   6.38125e-10      0.093646     0.0387053        112945        103683   3.26128e+06      0.171577
    0.0448048       1899.39       367.489        115793       72.9157      -2.64943             0       7.72476       2.07108             0       133.645        4.0794             0       11.7983             0             0   6.13086e-10     0.0936921      0.038232        112952        103685   3.26239e+06      0.171661
     0.044975        1899.4       366.696        114711       72.7898      -2.60171             0       7.72241       2.02104             0       132.893       3.64442             0       11.2103             0             0   5.88047e-10     0.0937382     0.0377587        112959        103686   3.26349e+06      0.171746
    0.0451451       1899.41       365.834        113504       72.6912      -2.59965             0       7.70865       1.95985             0       131.915        3.1283             0        10.724             0             0   5.85596e-10     0.0937962     0.0371642        112966        103687   3.26444e+06      0.171852
    0.0453153       1899.41       364.961        112275       72.5974      -2.60546             0       7.69292       1.89673             0       130.898       2.59818             0       10.2552             0             0    5.8704e-10     0.0938562     0.0365487        112972        103689   3.26537e+06      0.171962
    0.0454855       1899.42       364.088        111046       72.5036      -2.61128             0       7.67718       1.83361             0       129.881       2.06807             0       9.78642             0             0   5.88484e-10     0.0939161     0.0359332        112978        103690    3.2663e+06      0.172072