#           y             T         TMean   TPrime2Mean           U_x           U_y           U_z       UMean_x       UMean_y       UMean_z UPrime2Mea... UPrime2Mea... UPrime2Mea... UPrime2Mea... UPrime2Mea... UPrime2Mea...            O2           H2O          C3H8             p         pMean   pPrime2Mean           CO2
            0       316.779       288.635       4.87803       44.4691             0             0       17.0204             0             0        94.699             0             0             0             0             0      0.217644    0.00472387    0.00522717        111910        103585   2.79094e+06    0.00865501
  0.000500501       346.974       289.033       48.6384       45.0698     -0.112305             0       17.0243      0.011567             0       94.6013     -0.163111             0     0.0850274             0             0       0.21225    0.00699999     0.0053157        111898        103585   2.79054e+06     0.0128253
     0.001001       377.372       289.436       94.6617       45.6737     -0.224522             0       17.0282     0.0231395             0       94.5083     -0.326131             0      0.170258             0             0       0.20684    0.00928313    0.00540278        111886        103585   2.79014e+06     0.0170084
    0.0015015       509.306       291.835       1269.95       47.8866      -0.29311             0       17.0732     0.0374164             0       96.7445     -0.443935             0      0.356781             0             0       0.19331     0.0150754     0.0047704        111869        103585   2.79059e+06      0.027621
     0.002002       641.681       294.251       2471.27       50.1061     -0.360166             0       17.1185     0.0516942             0       99.0125     -0.561479             0      0.543826             0             0       0.17975      0.020881    0.00413497        111852        103585   2.79105e+06     0.0382579
    0.0025025       883.656       300.758       10155.5       53.9513     -0.046154             0       17.2685     0.0661907             0       109.177     -0.614335             0      0.860598             0             0      0.158571     0.0299873    0.00273995        111842        103584   2.79073e+06     0.0549423
     0.003003       1125.66       307.271       17871.9       57.8041      0.267072             0       17.4189     0.0806701             0        119.39     -0.667424             0       1.17846             0             0      0.137355     0.0391092    0.00134928        111833        103584   2.79042e+06     0.0716553
    0.0035035       1371.78       314.739       30915.9       62.8954      0.450044             0       17.6495     0.0923072             0       137.593     -0.759093             0        1.6775             0             0      0.109855     0.0508226   0.000678421        111831        103584   2.79037e+06     0.0931165
     0.004004       1616.92       322.181       43925.8       67.9892      0.630827             0         17.88       0.10389             0       155.815     -0.851485             0       2.17806             0             0     0.0823518     0.0625349   3.21039e-05        111829        103583   2.79032e+06      0.114576
    0.0045045       1740.95       326.381       52720.1       73.3827      0.540345             0       18.1084      0.108725             0       176.527      -1.03362             0        2.8667             0             0     0.0544948     0.0741006    0.00242886        111831        103582   2.78974e+06      0.135766
   0.00500501       1863.81        330.56       61459.7       78.7584      0.449556             0       18.3361      0.113575             0       197.199      -1.21397             0       3.55793             0             0      0.026782     0.0855971    0.00490912        111834        103581   2.78915e+06       0.15683
   0.00550551       1870.68       332.633       64773.4       82.3643      0.328373             0       18.5015      0.119952             0       214.079      -1.21821             0       4.50567             0             0     0.0133465      0.090241     0.0156573        111838        103580   2.78828e+06      0.165338
   0.00600601       1877.15       334.687         68047       85.9408      0.207523             0       18.6657       0.12646             0       230.895      -1.21729             0       5.45568             0             0   7.18678e-05     0.0948073     0.0265035        111842        103579   2.78743e+06      0.173705
   0.00650651       1850.47       335.239       68014.5        87.094      0.114159             0       18.7322       0.14371             0       242.413      -0.79189             0       6.59213             0             0   3.57315e-05     0.0929806     0.0454186        111849        103579   2.78716e+06      0.170358
   0.00700701       1823.74       335.776       67955.7       88.2285     0.0209171             0       18.7972      0.160843             0       253.856     -0.376848             0       7.72231             0             0   1.00504e-07     0.0911512     0.0643601        111855        103578    2.7869e+06      0.167006
   0.00750751       1792.85       335.233       66047.6       88.0396     -0.063772             0       18.7477      0.169806             0       260.019     -0.691268             0       8.41032             0             0   4.98886e-08     0.0891256     0.0851639        111862        103577   2.78746e+06      0.163295
   0.00800801       1761.93       334.693       64150.3       87.8441     -0.149623             0       18.6968      0.178731             0       266.106      -1.01094             0       9.09543             0             0   8.23675e-11     0.0871013      0.105955        111868        103576   2.78803e+06      0.159586
   0.00850851       1729.57       334.326       62907.1       87.2363     -0.306929             0       18.5575      0.185256             0       267.558      -1.65358             0       9.60168             0             0   4.08386e-11       0.08515      0.126001        111875        103575   2.78959e+06      0.156011
   0.00900901       1697.26       333.962       61676.7       86.6225     -0.465801             0       18.4174      0.191846             0       268.957      -2.29462             0       10.1104             0             0   5.68211e-14     0.0832043      0.145988        111882        103574   2.79114e+06      0.152446
   0.00950951       1667.82       333.787       61139.5       85.6878     -0.710139             0        18.232      0.202033             0       267.419      -2.84766             0       10.7526             0             0   2.81438e-14     0.0815689       0.16279        111887        103572   2.79195e+06      0.149449
      0.01001       1638.62       333.615         60612       84.7392     -0.951327             0       18.0461       0.21219             0       265.846      -3.40372             0       11.3938             0             0   3.96899e-17     0.0799457      0.179466        111892        103571   2.79275e+06      0.146475
    0.0105105       1620.94       333.565       60552.1       83.1146      -1.03825             0       17.8381      0.220918             0       262.535      -4.10773             0        11.984             0             0     1.964e-17     0.0789219      0.189983        111892        103570   2.79384e+06        0.1446
     0.011011       1603.73       333.516         60498       81.4834       -1.1223             0       17.6299      0.229711             0       259.226      -4.81078             0       12.5762             0             0   3.07794e-20       0.07792      0.200276        111893        103569   2.79491e+06      0.142764
    0.0115115       1607.27       333.519         60703       79.5632      -1.07928             0       17.4096      0.241429             0       255.972      -5.47152             0       13.2558             0             0   1.52158e-20     0.0778874      0.200607        111889        103568   2.79556e+06      0.142704
     0.012012       1611.39       333.522       60911.4       77.6595      -1.03818             0       17.1889      0.253148             0        252.73      -6.13545             0        13.937             0             0   2.53222e-23     0.0778813      0.200666        111884        103566   2.79621e+06      0.142693
    0.0125125       1639.23       333.521       61263.6       76.4303        -1.075             0       16.9542      0.264924             0       249.945      -6.92929             0       14.6811             0             0   1.25045e-23     0.0789478      0.189704        111877        103565   2.79671e+06      0.144647
     0.013013       1667.43       333.518       61616.9       75.2203      -1.11512             0       16.7192      0.276687             0       247.138      -7.72138             0       15.4276             0             0   1.98165e-26     0.0800296      0.178585        111868        103564   2.79719e+06      0.146629
    0.0135135       1708.69       333.485       62009.8       74.7314      -1.27896             0       16.4704      0.287997             0       243.468      -8.44792             0       16.2629             0             0   9.77521e-27     0.0816843      0.161584        111857        103563   2.79673e+06      0.149661
     0.014014       1749.84       333.444       62390.3        74.244      -1.44485             0        16.221      0.299359             0       239.721      -9.16512             0       17.0979             0             0   1.48984e-29     0.0833363      0.144611        111845        103562   2.79625e+06      0.152688
    0.0145145       1786.81       333.106       62339.9       73.8097      -1.68175             0       15.9489      0.312533             0       233.303      -9.55849             0       17.9232             0             0   7.34189e-30     0.0848946      0.128602        111830        103561   2.79471e+06      0.155543
     0.015015       1823.35       332.759       62276.2       73.3746      -1.91771             0        15.676      0.325866             0       226.876      -9.94163             0       18.7431             0             0   1.19434e-32     0.0864391      0.112735        111816        103559   2.79317e+06      0.158372
    0.0155155       1845.65       332.125       61779.2       72.9124      -2.12316             0       15.3817       0.34437             0       220.146      -9.99454             0       19.3862             0             0    6.0454e-33     0.0875336      0.101491        111803        103559   2.79172e+06      0.160378
     0.016016       1867.55       331.491       61275.3       72.4666      -2.32351             0       15.0873      0.362928             0       213.513      -10.0522             0       20.0253             0             0   2.25568e-33     0.0886159     0.0903732        111791        103558   2.79029e+06      0.162361
    0.0165165       1876.99       330.834         60562       72.5197      -2.36948             0       14.7906       0.38316             0       209.812      -10.2538             0       20.5437             0             0   6.22425e-32     0.0893255     0.0830831        111781        103557   2.78941e+06      0.163661
     0.017017       1886.16       330.175       59837.8       72.5862      -2.41207             0       14.4939      0.403436             0       206.166       -10.457             0       21.0615             0             0   9.09429e-31     0.0900262      0.075885        111771        103556    2.7885e+06      0.164945
    0.0175175       1887.87       329.467       58803.9       73.0324      -2.35888             0       14.1977      0.424951             0       204.058      -10.7082             0       21.5649             0             0   2.41223e-29     0.0904726     0.0712987        111766        103556   2.78677e+06      0.165763
     0.018018        1889.5       328.759       57763.6       73.4561      -2.30455             0        13.901      0.446469             0        201.88      -10.9534             0       22.0623             0             0    3.9115e-28     0.0909143     0.0667609        111761        103555   2.78504e+06      0.166572
    0.0185185       1889.16       328.048       56552.2       73.2765      -2.21957             0         13.59      0.468065             0       197.813      -11.0376             0        22.401             0             0   9.96478e-27     0.0912297     0.0635206        111759        103555   2.78343e+06       0.16715
     0.019019       1888.86       327.346       55349.2       73.0575      -2.13494             0       13.2787      0.489588             0       193.658      -11.1204             0        22.734             0             0   1.81473e-25     0.0915442     0.0602897        111757        103554   2.78183e+06      0.167726
    0.0195195       1889.52       326.841       54362.3       71.8413      -2.05902             0       12.9566      0.509278             0       187.259      -11.1696             0       22.9202             0             0   4.45249e-24     0.0918358     0.0572948        111758        103554   2.78045e+06       0.16826
      0.02002       1890.23       326.342       53385.2       70.5927       -1.9816             0       12.6341      0.529069             0       180.804      -11.2122             0       23.1014             0             0   8.94597e-23     0.0921277     0.0542972        111759        103554   2.77907e+06      0.168795
    0.0205205       1891.97       325.987       52642.5       68.5662      -1.86823             0       12.3034      0.551253             0           173      -11.0984             0       23.1628             0             0   2.11213e-21      0.092426     0.0512336        111761        103554   2.77775e+06      0.169342
     0.021021       1893.71       325.635       51905.6       66.5309      -1.75595             0       11.9729      0.573548             0        165.18       -10.987             0       23.2221             0             0   4.42423e-20     0.0927237     0.0481767        111763        103554    2.7764e+06      0.169887
    0.0215215       1895.35       325.356       51298.4       64.2954      -1.66876             0       11.6483      0.598391             0        156.97       -10.934             0       23.2314             0             0   1.00121e-18     0.0930065     0.0452721        111767        103554   2.77456e+06      0.170405
     0.022022       1896.91       325.076       50686.4       62.0698      -1.58161             0       11.3249      0.623296             0       148.766      -10.8758             0       23.2324             0             0   2.38532e-17     0.0932862     0.0424012        111772        103554   2.77275e+06      0.170918
    0.0225225       1896.43       324.784       49971.7       60.0593      -1.49532             0       11.0283      0.649525             0       140.691      -10.7056             0       23.0521             0             0   5.22425e-16     0.0934947     0.0402605        111779        103554   2.77161e+06        0.1713
     0.023023       1895.73       324.488       49249.6       58.0453       -1.3812             0       10.7328      0.675587             0       132.642      -10.5538             0        22.873             0             0   1.37613e-14     0.0936981     0.0381718        111786        103555   2.77043e+06      0.171672
    0.0235235       1890.12       324.102       48374.2       55.9585     -0.689996             0       10.4613      0.698185             0       125.126      -10.7826             0       22.7209             0             0   2.91224e-13     0.0937966     0.0371608        111796        103555    2.7686e+06      0.171853
     0.024024       1884.08       323.717       47511.3       53.8757     0.0334632             0       10.1906      0.721273             0       117.634      -11.0102             0        22.549             0             0   6.63685e-12     0.0938906     0.0361961        111807        103555   2.76682e+06      0.172025
    0.0245245       1869.54       323.372         46897       51.8698       1.39658             0        9.9354      0.754088             0       110.599       -11.214             0       21.9835             0             0   1.33334e-10      0.093895     0.0361509        111820        103555   2.76607e+06      0.172033
     0.025025       1854.58       322.988       46223.1       49.9159       2.78969             0       9.68085      0.787112             0       103.607      -11.4099             0       21.4266             0             0    2.4258e-09     0.0938972     0.0361285        111833        103555   2.76527e+06      0.172037
    0.0255255       1831.66       321.862         44418       48.9509       4.75271             0        9.4386      0.824092             0       97.4541      -11.4555             0       21.0323             0             0    4.5868e-08     0.0938572     0.0365394        111844        103555   2.76378e+06      0.171964
     0.026026       1807.85       320.682       42536.1       48.0528        6.7491             0       9.19744      0.863135             0       91.4154      -11.4301             0       20.6234             0             0    5.2351e-07     0.0938174     0.0369462        111853        103555   2.76241e+06      0.171891
    0.0265265       1767.83       318.532       39252.8       48.3755       9.35396             0       8.97624       0.93978             0       87.4664      -10.1104             0       19.9487             0             0   8.91695e-06     0.0937816     0.0372774        111849        103556    2.7632e+06      0.171825
     0.027027       1727.37       316.227       35714.7       48.7395       11.8903             0       8.75596       1.01833             0       83.5027      -8.72239             0       19.2417             0             0   1.73225e-05     0.0937486     0.0375803        111843        103556     2.764e+06      0.171765
    0.0275275       1679.22       311.211       27712.2       49.8265       13.2271             0       8.55201       1.13032             0       79.2805      -6.13644             0       17.9672             0             0   2.59407e-05     0.0937638     0.0373867        111817        103556   2.76492e+06      0.171793
     0.028028        1631.8       306.205         19752       50.8945       14.5269             0       8.35007       1.23932             0       75.0154      -3.66797             0       16.7298             0             0    3.4091e-05     0.0937846     0.0371382        111791        103556   2.76577e+06      0.171831
    0.0285285       1596.46       301.384       12505.4       51.6427       15.2025             0       8.18191       1.29782             0       70.0291      -3.17979             0       16.1189             0             0   3.43559e-05     0.0938988     0.0359649        111760        103556    2.7656e+06       0.17204
     0.029029       1562.56       296.762       5611.36       52.4056       15.8779             0       8.01821       1.35472             0       65.1534      -2.71368             0        15.523             0             0   3.42544e-05     0.0940149     0.0347734        111729        103556   2.76552e+06      0.172253
    0.0295295       1551.94       295.379       4442.37       53.4079       16.5508             0       7.92699       1.38537             0       62.0752      -2.60605             0       15.1715             0             0   2.82033e-05     0.0941623      0.033287        111705        103556   2.76675e+06      0.172523
      0.03003       1542.91       294.033       3325.74       54.4215       17.1817             0       7.84042       1.41541             0       59.0698      -2.47722             0       14.8291             0             0   2.20097e-05     0.0943098     0.0317994        111681        103556   2.76803e+06      0.172793
    0.0305305       1558.74       293.285       3029.38       55.6136       17.1559             0       7.82689       1.43592             0       57.2055      -2.01635             0       14.6296             0             0   1.35844e-05     0.0944603      0.030292        111667        103555    2.7701e+06      0.173069
     0.031031       1575.61       292.561       2756.68       56.7743       17.1135             0       7.81647        1.4555             0       55.3647      -1.56825             0       14.4316             0             0   5.52019e-06     0.0946185     0.0287023        111653        103555   2.77221e+06      0.173359
    0.0315315       1608.28       292.213        2841.8       57.4607       16.8199             0       7.85306       1.46094             0       53.8795      -1.31346             0       14.2569             0             0   2.91969e-06     0.0948957     0.0258677        111648        103555   2.77501e+06      0.173867
     0.032032       1640.62       291.882       2927.38       58.1241        16.527             0       7.89038       1.46574             0       52.3824      -1.07048             0       14.0839             0             0   4.70817e-07     0.0951755     0.0230058        111644        103555   2.77775e+06      0.174379
    0.0325325       1668.06       291.802       3019.57       58.4515       16.2455             0       7.93819       1.46111             0       50.7104      -1.00015             0       13.9372             0             0   2.39578e-07     0.0954933     0.0197451        111644        103555    2.7795e+06      0.174961
     0.033033        1694.2       291.723       3102.31       58.7728       15.9646             0       7.98598       1.45612             0       49.0402     -0.941971             0       13.7933             0             0   2.30911e-08     0.0958025     0.0165716        111644        103555   2.78125e+06      0.175528
    0.0335335       1701.99        291.64       3051.26        59.009       15.6924             0       8.03346       1.44587             0       47.3957       -1.0559             0         13.69             0             0   1.53597e-08     0.0959915     0.0146314        111643        103555   2.78313e+06      0.175874
     0.034034       1708.81       291.557       2996.26       59.2187       15.3974             0       8.08126        1.4355             0       45.7647      -1.17465             0       13.5878             0             0   8.96676e-09     0.0961737     0.0127607        111643        103555   2.78497e+06      0.176208
    0.0345345       1702.36       291.471       2887.17       59.0648        14.789             0       8.13336       1.42338             0       44.3198      -1.35944             0       13.5015             0             0   2.09189e-08     0.0962631      0.011843        111646        103555   2.78626e+06      0.176372
     0.035035       1695.27       291.383       2773.74       58.8843        14.188             0       8.18625        1.4111             0       42.8766      -1.55283             0       13.4153             0             0    3.6874e-08     0.0963468     0.0109837        111648        103555   2.78756e+06      0.176525
    0.0355355       1679.59       291.258       2602.66       58.3514       13.6868             0       8.24953       1.39661             0       41.4565      -1.86059             0       13.3321             0             0   1.06011e-07      0.096355     0.0108993        111652        103555   2.78899e+06       0.17654
     0.036036        1663.1       291.132       2428.96       57.7918       13.1804             0       8.31345       1.38204             0       40.0582      -2.17433             0       13.2448             0             0   2.32707e-07     0.0963534     0.0109156        111655        103555   2.79039e+06      0.176537
    0.0365365       1636.25       290.975       2221.57       56.8892       12.6066             0       8.38558        1.3663             0       38.9405      -2.56513             0       13.1048             0             0   1.10128e-06     0.0962253     0.0122276        111659        103556   2.79134e+06      0.176303
     0.037037       1608.42       290.817        2011.5       55.9528       12.0599             0         8.457       1.35013             0        37.849      -2.96351             0       12.9562             0             0   2.77619e-06      0.096084     0.0136715        111664        103556   2.79229e+06      0.176044
    0.0375375       1568.42       290.626       1767.82       54.5944       11.8532             0       8.51955       1.32857             0       37.0847      -3.45675             0       12.6988             0             0   1.45412e-05     0.0957779      0.016765        111679        103556   2.79318e+06      0.175483
     0.038038       1527.73       290.437       1526.56       53.2214       11.6917             0       8.58087       1.30663             0       36.3691      -3.94915             0       12.4319             0             0   3.56091e-05     0.0954571     0.0199688        111696        103557   2.79402e+06      0.174895
    0.0385385       1478.77       290.261       1314.69       51.6713       12.0807             0       8.62729       1.27987             0       36.2456      -4.43121             0       12.0499             0             0   0.000169782      0.094958     0.0245147        111724        103558   2.79437e+06      0.173981
     0.039039       1429.35       290.087       1105.95       50.0858       12.4854             0       8.67213       1.25269             0       36.1804      -4.91046             0       11.6572             0             0   0.000353702     0.0944297     0.0291439        111753        103559   2.79472e+06      0.173013
    0.0395395       1374.53       289.928       934.303       48.0811       13.0764             0       8.69831       1.22044             0       36.8048       -5.3565             0       11.1385             0             0    0.00112565     0.0935569     0.0347572        111792        103560     2.795e+06      0.171414
      0.04004       1320.08       289.772       767.089       46.1263        13.666             0       8.72234       1.18785             0       37.5029      -5.79116             0       10.6105             0             0    0.00198647     0.0926299     0.0405406        111829        103561   2.79523e+06      0.169715
    0.0405405        1269.9       289.652       650.872       44.7464       14.2408             0       8.72166       1.15135             0       39.0478       -6.0949             0       9.97665             0             0     0.0038692     0.0910799       0.04828        111852        103562   2.79501e+06      0.166875
     0.041041       1220.49       289.536       539.037       43.4202       14.8198             0       8.71824       1.11444             0        40.657      -6.38386             0       9.33618             0             0    0.00578927     0.0894906     0.0562612        111874        103563   2.79476e+06      0.163963
    0.0415415       1179.67        289.47        476.26       42.6959       15.4468             0       8.68404       1.07307             0        42.986      -6.50746             0       8.62192             0             0    0.00812738     0.0874612     0.0669498        111873        103565   2.79435e+06      0.160245
     0.042042       1139.22       289.405       415.622       41.9911       16.0575             0       8.64666       1.03116             0       45.3431      -6.61603             0         7.905             0             0     0.0104321     0.0854299     0.0778048        111870        103566   2.79391e+06      0.156524
    0.0425425       1102.88       289.366       378.318       41.4999       16.4907             0       8.57453      0.983319             0       48.0071      -6.56071             0       7.15917             0             0     0.0123729      0.083377     0.0904731        111837        103567   2.79332e+06      0.152762
     0.043043       1065.44       289.326        340.44       40.9563       16.8922             0       8.49963       0.93483             0       50.6778      -6.49512             0       6.41579             0             0     0.0143879     0.0812954      0.103112        111801        103569   2.79272e+06      0.148948
    0.0435435       1016.23       289.275        296.47       39.8564       16.9566             0       8.39521      0.879475             0       53.4205      -6.32038             0       5.69849             0             0     0.0171911     0.0789103      0.115435        111737        103570   2.79212e+06      0.144578
     0.044044       963.928       289.222       251.372       38.6538       16.9287             0       8.28871      0.823332             0       56.1896       -6.1399             0       4.98499             0             0     0.0203203     0.0763862      0.127768        111675        103571    2.7915e+06      0.139954
    0.0445445        879.62       289.144       194.588       36.3865       15.9431             0        8.1605      0.759025             0       59.2313      -5.90008             0       4.31099             0             0     0.0268269     0.0724208      0.140197        111641        103573   2.79066e+06      0.132688
     0.045045       794.402       289.067       138.996       34.2239       14.8429             0        8.0299      0.693886             0       62.3049      -5.65389             0       3.64225             0             0     0.0335583     0.0683646      0.152581        111607        103574   2.78986e+06      0.125257
    0.0455455       699.983       288.995       95.4665       33.1191       12.5832             0       7.87507      0.620339             0       65.7008      -5.34346             0       3.02674             0             0     0.0425629     0.0633898      0.164507        111565        103575   2.78932e+06      0.116142