#           y             T         TMean   TPrime2Mean           U_x           U_y           U_z       UMean_x       UMean_y       UMean_z UPrime2Mea... UPrime2Mea... UPrime2Mea... UPrime2Mea... UPrime2Mea... UPrime2Mea...            O2           H2O          C3H8             p         pMean   pPrime2Mean           CO2
  1.11022e-19       288.586       288.612      0.161762       78.1583  -4.43394e-18             0       14.3632   2.64891e-18             0       101.997    6.1117e-17             0   8.30191e-18             0             0      0.226414   3.24979e-06     0.0155588        111622        103449   1.92722e+06   5.95421e-06
  0.000500501       288.543       288.622      0.162153       78.1458    -0.0199887             0       14.3193     0.0119416             0        101.22      0.275522             0     0.0374259             0             0      0.225494   1.01065e-05     0.0194892        111633        103449   1.92716e+06    1.8517e-05
     0.001001         288.5       288.631      0.162552       78.1336    -0.0398916             0       14.2753     0.0238844             0       100.441      0.551089             0     0.0749603             0             0      0.224571   1.70082e-05     0.0234279        111644        103449   1.92711e+06   3.11622e-05
    0.0015015       288.513       288.649      0.167577       78.2434    -0.0170187             0       14.1792     0.0364647             0       98.5964      0.849213             0      0.166646             0             0      0.222646   4.63914e-05     0.0314959        111678        103449   1.92702e+06   8.49978e-05
     0.002002       288.526       288.667      0.172626        78.354    0.00651506             0       14.0832     0.0490406             0       96.7517       1.14739             0      0.258574             0             0      0.220719   7.59459e-05     0.0395709        111712        103448   1.92692e+06   0.000139147
    0.0025025       288.707       288.681      0.183438        78.647      0.194607             0       13.9967     0.0605558             0       94.8822       1.45776             0      0.410974             0             0      0.218284   0.000148152     0.0494191        111755        103448   1.92678e+06   0.000271442
     0.003003        288.89       288.695      0.194247       78.9411      0.383584             0       13.9104     0.0720657             0       93.0166       1.76811             0      0.563703             0             0      0.215846   0.000220831       0.05927        111797        103448   1.92664e+06   0.000404604
    0.0035035       289.239       288.702      0.204494       79.4188      0.719083             0       13.8528     0.0827003             0       91.8259       2.07484             0      0.771081             0             0      0.213125   0.000371963     0.0695523        111825        103448   1.92633e+06   0.000681506
     0.004004       289.588        288.71       0.21469       79.8974       1.05695             0       13.7952     0.0933429             0       90.6407       2.38162             0      0.978837             0             0      0.210403   0.000523704     0.0798285        111854        103447   1.92602e+06   0.000959523
    0.0045045       290.066       288.715       0.21865       80.4883        1.6883             0       13.7464      0.104967             0       90.1503       2.69554             0       1.23355             0             0      0.207679    0.00075093     0.0893392        111870        103447   1.92561e+06    0.00137584
   0.00500501       290.542       288.721       0.22251       81.0757       2.32216             0       13.6975      0.116613             0       89.6647       3.00956             0       1.48872             0             0      0.204956   0.000977299     0.0988522        111887        103447   1.92519e+06    0.00179059
   0.00550551       290.752       288.728      0.216375       81.3114       3.20488             0       13.6416       0.13046             0       89.6518       3.33326             0       1.78945             0             0       0.20238    0.00111875      0.108603        111889        103446   1.92458e+06    0.00204976
   0.00600601       290.958       288.736      0.210173       81.5397       4.08593             0       13.5856      0.144315             0       89.6427        3.6569             0       2.09081             0             0      0.199804    0.00125786      0.118373        111891        103446   1.92396e+06    0.00230463
   0.00650651       290.758       288.746       0.19844       81.1531       4.82843             0       13.5268      0.158815             0       89.9474       3.97606             0       2.44449             0             0      0.197326     0.0012037      0.129703        111876        103445    1.9231e+06    0.00220541
   0.00700701       290.556       288.755      0.186759        80.761       5.56655             0       13.4681      0.173303             0       90.2553       4.29495             0       2.79905             0             0      0.194845    0.00114708      0.141074        111860        103445   1.92224e+06    0.00210166
   0.00750751       290.281       288.762      0.178794        79.981       5.99628             0       13.4162      0.186925             0       90.7923       4.59495             0       3.21491             0             0      0.192118   0.000916209      0.155298        111825        103444   1.92121e+06    0.00167867
   0.00800801       290.008       288.768      0.170897        79.202       6.42102             0       13.3645      0.200526             0         91.33        4.8947             0       3.63187             0             0      0.189397   0.000685682      0.169495        111791        103444   1.92018e+06     0.0012563
   0.00850851       289.877        288.77      0.167238        78.485       6.53895             0       13.3217      0.212879             0       91.9157       5.17847             0       4.11666             0             0      0.187024   0.000476042      0.181967        111735        103443   1.91905e+06   0.000872197
   0.00900901       289.748       288.772      0.163601       77.7736       6.65266             0       13.2791      0.225201             0       92.4965       5.46229             0       4.60268             0             0      0.184676   0.000268821      0.194304        111679        103443   1.91791e+06    0.00049253
   0.00950951       289.729       288.772      0.161119       77.3626       6.53695             0       13.2446      0.235891             0       92.8037       5.74898             0       5.15522             0             0      0.183703   0.000193627      0.199305        111621        103442   1.91676e+06   0.000354761
      0.01001        289.71       288.772      0.158646       76.9554       6.42007             0       13.2102      0.246543             0        93.102       6.03584             0       5.70897             0             0      0.182763   0.000119165      0.204157        111564        103441   1.91561e+06   0.000218333
    0.0105105         289.7       288.771      0.156563       76.7346       6.24584             0       13.1833       0.25527             0        92.958       6.33118             0       6.32177             0             0      0.183418   8.05642e-05      0.201705        111521        103441   1.91446e+06   0.000147609
     0.011011        289.69        288.77      0.154483       76.5154       6.07164             0       13.1565      0.263953             0       92.8047       6.62645             0       6.93568             0             0      0.184095   4.24567e-05      0.199153        111478        103440   1.91332e+06   7.77886e-05
    0.0115115       289.686       288.768      0.152531       76.3703       5.89886             0        13.135      0.270672             0       92.2367       6.91875             0       7.59956             0             0      0.185751   2.62851e-05      0.192116        111452        103439   1.91215e+06   4.81593e-05
     0.012012       289.682       288.767      0.150588       76.2261       5.72595             0       13.1134      0.277351             0       91.6588       7.21078             0       8.26431             0             0      0.187406     1.039e-05      0.185086        111426        103438   1.91099e+06   1.90363e-05
    0.0125125        289.69       288.765      0.149042       76.1172       5.54804             0       13.0923      0.282383             0       90.6842       7.49221             0       8.96478             0             0      0.188969   5.73343e-06      0.178335        111411        103438   1.90972e+06   1.05047e-05
     0.013013       289.698       288.762      0.147502       76.0071       5.37032             0        13.071      0.287413             0       89.6986       7.77383             0       9.66521             0             0       0.19052   1.18377e-06      0.171642        111396        103437   1.90844e+06   2.16889e-06
    0.0135135       289.716       288.761      0.146174        75.849       5.19947             0       13.0416      0.292387             0       88.3004       8.06269             0       10.3642             0             0      0.191566   6.37636e-07        0.1671        111384        103436   1.90709e+06   1.16827e-06
     0.014014       289.734       288.761       0.14485       75.6907       5.02865             0       13.0117      0.297436             0       86.8924       8.35244             0       11.0617             0             0      0.192611   1.05405e-07      0.162562        111371        103435   1.90574e+06   1.93122e-07
    0.0145145       289.758        288.76      0.143649       75.5203       4.85867             0       12.9628       0.30509             0       85.1469       8.67292             0       11.7036             0             0      0.193621   5.58171e-08       0.15817        111354        103434    1.9043e+06   1.02267e-07
     0.015015       289.783        288.76      0.142462       75.3511       4.68929             0       12.9131      0.312836             0       83.3957        8.9938             0       12.3431             0             0      0.194631   7.60823e-09      0.153778        111337        103433   1.90285e+06   1.39397e-08
    0.0155155       289.817        288.76      0.141763        75.218       4.53913             0       12.8403      0.323573             0         81.46       9.32736             0       12.9069             0             0      0.195642   3.99462e-09      0.149384        111317        103433   1.90122e+06   7.31889e-09
     0.016016       289.851       288.761      0.141084       75.0806       4.38988             0        12.767      0.334291             0        79.521        9.6593             0        13.469             0             0       0.19665   4.89166e-10      0.145001        111297        103432   1.89958e+06   8.96244e-10
    0.0165165       289.892       288.761      0.140977       74.8126       4.26849             0       12.6771      0.344399             0       77.4813       9.94226             0       13.9795             0             0      0.197584   2.55597e-10       0.14094        111276        103431   1.89781e+06   4.68301e-10
     0.017017       289.933       288.761      0.140888       74.5331       4.14783             0       12.5869      0.354375             0       75.4374       10.2218             0       14.4884             0             0      0.198514   2.94867e-11      0.136895        111256        103431   1.89603e+06   5.40252e-11
    0.0175175       289.978       288.761      0.141331       73.9273       4.04775             0       12.4868      0.360589             0        73.273       10.4046             0       14.9483             0             0      0.199346   1.53281e-11      0.133279        111239        103430   1.89411e+06   2.80839e-11
     0.018018       290.022       288.761      0.141776       73.3082       3.94769             0       12.3864      0.366678             0       71.1055       10.5836             0       15.4046             0             0      0.200175   1.65033e-12      0.129676        111221        103429   1.89218e+06    3.0237e-12
    0.0185185        290.07       288.761      0.142299       72.3363       3.84826             0       12.2771      0.369418             0        68.856       10.6616             0       15.7668             0             0      0.200922   8.50482e-13      0.126427        111207        103429   1.89016e+06   1.55824e-12
     0.019019       290.117       288.761      0.142802       71.3549       3.74864             0       12.1676      0.372061             0       66.6109       10.7362             0       16.1237             0             0      0.201673   7.95909e-14      0.123161        111193        103428   1.88813e+06   1.45825e-13
    0.0195195       290.167       288.761      0.142804       70.1365       3.64401             0       12.0528       0.37226             0       64.4765       10.7263             0        16.347             0             0      0.202521   4.16392e-14      0.119472        111178        103428   1.88609e+06   7.62907e-14
      0.02002       290.216       288.761      0.142754       68.9107        3.5394             0        11.938      0.372336             0       62.3546       10.7132             0       16.5644             0             0      0.203384   5.13966e-15      0.115722        111162        103428   1.88405e+06   9.41681e-15
    0.0205205       290.258       288.761      0.141464       67.5077       3.43531             0       11.8248      0.369472             0       60.5332       10.6266             0       16.6408             0             0      0.204587   3.49272e-15       0.11049        111144        103428   1.88203e+06   6.39931e-15
     0.021021       290.299       288.762      0.140124       66.0952       3.33144             0       11.7118      0.366487             0       58.7273        10.537             0       16.7108             0             0      0.205793   1.91056e-15      0.105248        111125        103428   1.88001e+06    3.5005e-15
    0.0215215       290.335       288.764      0.137625       64.4665       3.23256             0       11.6018      0.360763             0       57.2755        10.381             0       16.6361             0             0      0.207045   1.80582e-15     0.0998017        111103        103428    1.8781e+06    3.3086e-15
     0.022022        290.37       288.765      0.135113       62.8265       3.13395             0       11.4918       0.35498             0       55.8383       10.2225             0       16.5544             0             0      0.208281   1.70496e-15     0.0944298        111082        103428   1.87619e+06   3.12381e-15
    0.0225225       290.405       288.767      0.132324       60.9418       3.04132             0       11.3812      0.347936             0       54.7189        10.012             0       16.3215             0             0      0.209143   1.68836e-15     0.0906827        111063        103428   1.87455e+06   3.09339e-15
     0.023023        290.44        288.77      0.129551        59.048       2.94844             0       11.2705      0.340881             0       53.6122       9.79965             0       16.0817             0             0      0.209989   1.67219e-15     0.0870045        111044        103429   1.87291e+06   3.06376e-15
    0.0235235       290.477       288.772      0.127109       56.9657       2.85044             0       11.1576      0.333598             0       52.7687       9.55091             0        15.699             0             0      0.210506   1.66496e-15     0.0847564        111032        103429    1.8716e+06   3.05052e-15
     0.024024       290.514       288.774      0.124696       54.8782        2.7518             0       11.0446      0.326316             0       51.9341       9.30104             0       15.3102             0             0      0.211012   1.65795e-15     0.0825587        111021        103429   1.87029e+06   3.03767e-15
    0.0245245       290.556       288.777      0.122865       52.6888       2.64054             0       10.9311      0.319059             0       51.2762        9.0284             0       14.8004             0             0      0.211287   1.65514e-15     0.0813603        111017        103430   1.86929e+06   3.03252e-15
     0.025025       290.597       288.779      0.121045       50.4993       2.52888             0       10.8177      0.311816             0       50.6238       8.75554             0       14.2857             0             0      0.211552   1.65247e-15     0.0802097        111013        103431   1.86831e+06   3.02763e-15
    0.0255255       290.626       288.782      0.119436       48.3097       2.40963             0       10.7089      0.304835             0       50.0758       8.47855             0       13.6798             0             0      0.211608   1.65258e-15     0.0799667        111016        103431   1.86773e+06   3.02783e-15
     0.026026       290.655       288.786      0.117819       46.1261       2.28996             0       10.6007       0.29789             0       49.5339       8.20238             0        13.071             0             0      0.211652   1.65277e-15     0.0797741        111019        103432   1.86717e+06   3.02818e-15
    0.0265265       290.674        288.79      0.116054       44.0499       2.16277             0       10.5038      0.291617             0       49.1034       7.94121             0       12.4088             0             0      0.211485   1.65441e-15     0.0805016        111027        103433   1.86699e+06   3.03119e-15
     0.027027       290.693       288.795      0.114288       41.9839       2.03458             0       10.4075      0.285377             0       48.6746       7.68103             0       11.7458             0             0      0.211299   1.65613e-15     0.0813118        111036        103434   1.86683e+06   3.03435e-15
    0.0275275       290.712       288.803      0.112513       40.0946       1.88895             0       10.3226      0.279702             0       48.2749       7.43838             0       11.0674             0             0      0.210779    1.6592e-15     0.0835729        111050        103434   1.86707e+06   3.03996e-15
     0.028028       290.732        288.81      0.110763       38.2185       1.74278             0       10.2383      0.274042             0       47.8657       7.19604             0       10.3899             0             0      0.210235   1.66246e-15     0.0859355        111064        103435   1.86733e+06   3.04593e-15
    0.0285285       290.754       288.818      0.109427       36.5637       1.58754             0       10.1623      0.268624             0       47.2956       6.95876             0         9.728             0             0      0.209298   1.66902e-15     0.0900108        111085        103436   1.86796e+06   3.05795e-15
     0.029029       290.776       288.825      0.108157       34.9254       1.43347             0        10.087      0.263248             0       46.7122       6.72083             0       9.06865             0             0      0.208354   1.67576e-15     0.0941151        111106        103436   1.86861e+06    3.0703e-15
    0.0295295         290.8        288.83      0.107955       33.5569       1.29853             0       10.0223      0.258576             0        45.911       6.47217             0       8.45155             0             0      0.207302   1.68549e-15     0.0986898        111133        103437   1.86953e+06   3.08813e-15
      0.03003       290.824       288.835      0.107814       32.2059       1.16573             0       9.95847      0.253983             0       45.1005       6.22254             0        7.8385             0             0       0.20626   1.69583e-15      0.103218        111161        103438   1.87046e+06   3.10708e-15
    0.0305305       290.849       288.837      0.108637       31.1287       1.06643             0       9.90825      0.250629             0       44.1451       5.95778             0        7.2887             0             0      0.205388   1.71573e-15       0.10701        111193        103438   1.87159e+06   3.14353e-15
     0.031031       290.874       288.838       0.10948       30.0611      0.967229             0       9.85889      0.247332             0        43.188       5.69279             0       6.74362             0             0      0.204519   1.73998e-15      0.110789        111225        103439   1.87273e+06   3.18796e-15
    0.0315315         290.9       288.837      0.110628       29.1381      0.869552             0       9.82255      0.244897             0       42.2055       5.42425             0       6.26984             0             0      0.203698   1.83011e-15      0.114356        111258        103440   1.87409e+06    3.3531e-15
     0.032032       290.924       288.836      0.111779       28.2153      0.770574             0       9.78675      0.242452             0       41.2287       5.15646             0       5.80052             0             0      0.202875    1.9262e-15      0.117938        111290        103440   1.87546e+06   3.52916e-15
    0.0325325       290.945       288.834       0.11297       27.2963      0.652583             0       9.75895      0.239844             0       40.3363       4.89967             0       5.39629             0             0      0.202003   2.10937e-15      0.121728        111321        103441   1.87695e+06   3.86476e-15
     0.033033       290.965       288.833      0.114159       26.3883      0.535687             0        9.7312      0.237165             0       39.4511       4.64416             0        4.9959             0             0      0.201139   2.29285e-15      0.125484        111350        103441   1.87844e+06   4.20093e-15
    0.0335335       290.968       288.831      0.115335       25.6369      0.434282             0       9.70414       0.23348             0       38.6685       4.40688             0       4.64996             0             0      0.200385   2.48078e-15      0.128763        111376        103442   1.87999e+06   4.54525e-15
     0.034034        290.97       288.828      0.116482       24.9165      0.337067             0       9.67687      0.229719             0       37.8915       4.17077             0       4.30741             0             0       0.19963   2.66442e-15      0.132046        111401        103442   1.88153e+06   4.88171e-15
    0.0345345        290.94       288.825      0.117241       24.6216      0.297291             0       9.64672      0.224908             0       37.1921       3.95054             0        4.0112             0             0      0.198862   2.78921e-15      0.135381        111420        103442   1.88304e+06   5.11035e-15
     0.035035       290.909       288.821      0.117963       24.3527      0.261033             0       9.61643      0.220032             0       36.4967         3.731             0        3.7179             0             0      0.198101   2.90769e-15      0.138692        111439        103443   1.88453e+06   5.32743e-15
    0.0355355       290.855       288.816      0.118193       24.4291      0.271517             0       9.58416        0.2143             0       35.8532       3.52057             0       3.46317             0             0      0.197415   2.94224e-15      0.141675        111451        103443   1.88584e+06   5.39074e-15
     0.036036         290.8        288.81      0.118434        24.512      0.282813             0       9.55191      0.208512             0       35.2128       3.31064             0       3.21074             0             0      0.196726     2.965e-15      0.144669        111463        103443   1.88714e+06   5.43243e-15
    0.0365365       290.734       288.804      0.118825       24.6785      0.304584             0       9.51995      0.202015             0       34.6119       3.10706             0       2.98801             0             0      0.196006   2.83562e-15      0.147799        111471        103444   1.88833e+06   5.19538e-15
     0.037037       290.668       288.798      0.119285       24.8477      0.325998             0       9.48812      0.195472             0       34.0151       2.90415             0       2.76707             0             0      0.195258   2.69617e-15       0.15105        111479        103444   1.88952e+06   4.93989e-15
    0.0375375        290.61       288.792      0.120599       25.0525      0.342942             0       9.45804      0.188356             0       33.4691       2.70977             0       2.56839             0             0      0.194163   2.43072e-15      0.155811        111485        103444   1.89062e+06   4.45353e-15
     0.038038       290.555       288.787      0.121968       25.2632       0.36002             0       9.42808      0.181213             0       32.9272       2.51666             0       2.37114             0             0      0.193077   2.16938e-15      0.160532        111492        103444   1.89172e+06   3.97471e-15
    0.0385385       290.532       288.783      0.124005        25.544      0.378721             0       9.39947      0.173742             0        32.436       2.33911             0       2.19109             0             0      0.192103   1.95813e-15       0.16477        111499        103444   1.89275e+06   3.58767e-15
     0.039039       290.512        288.78      0.126029       25.8249      0.398446             0        9.3709      0.166268             0       31.9489       2.16352             0       2.01214             0             0      0.191166   1.75768e-15      0.168844        111505        103445   1.89376e+06   3.22041e-15
    0.0395395       290.511       288.777      0.127894       26.1058      0.430269             0       9.34273      0.158769             0       31.5107       2.01112             0       1.84633             0             0      0.190672   1.68487e-15      0.170994        111513        103445   1.89473e+06     3.087e-15
      0.04004        290.51       288.775      0.129715        26.381      0.462229             0       9.31459      0.151268             0       31.0775       1.86071             0       1.68147             0             0      0.190199   1.61813e-15      0.173049        111521        103445   1.89569e+06   2.96472e-15
    0.0405405       290.513       288.774      0.131013       26.5902      0.495776             0        9.2868      0.143729             0       30.7007       1.73317             0       1.52752             0             0      0.189974   1.62122e-15      0.174028        111529        103445   1.89659e+06   2.97038e-15
     0.041041       290.514       288.772       0.13222       26.7955      0.528408             0       9.25913       0.13616             0       30.3294       1.60678             0       1.37458             0             0      0.189754   1.62698e-15      0.174984        111537        103445   1.89749e+06   2.98093e-15
    0.0415415       290.511       288.771      0.132418       26.9564      0.550795             0       9.23278      0.128244             0       30.0208       1.49327             0        1.2329             0             0      0.189593    1.6626e-15      0.175684        111546        103446   1.89836e+06    3.0462e-15
     0.042042       290.507        288.77       0.13255       27.1179      0.572543             0       9.20662       0.12028             0       29.7188       1.38029             0       1.09239             0             0      0.189438   1.69899e-15      0.176355        111554        103446   1.89922e+06   3.11287e-15
    0.0425425       290.486       288.769       0.13196       27.2865       0.58733             0       9.18259      0.111803             0       29.4877        1.2729             0       0.96462             0             0      0.189355   1.74373e-15      0.176715        111561        103446   1.90006e+06   3.19484e-15
     0.043043       290.465       288.768      0.131448       27.4581      0.601746             0       9.15859      0.103272             0       29.2618       1.16568             0      0.838121             0             0      0.189283   1.78823e-15      0.177029        111568        103446   1.90089e+06   3.27638e-15
    0.0435435       290.432       288.769      0.131758        27.663      0.612215             0       9.13491     0.0941787             0         29.09       1.06033             0      0.725125             0             0      0.189324   1.83027e-15      0.176852        111574        103446   1.90161e+06   3.35341e-15
     0.044044         290.4       288.769      0.132255       27.8713      0.622473             0        9.1107     0.0850223             0       28.9201      0.955129             0      0.613389             0             0      0.189371   1.87231e-15      0.176648        111579        103446   1.90231e+06   3.43042e-15
    0.0445445       290.379        288.77      0.134686       28.1166      0.630542             0       9.08116     0.0752158             0       28.7705      0.851537             0      0.514709             0             0       0.18948   1.91426e-15      0.176173        111585        103447   1.90292e+06   3.50729e-15
     0.045045       290.361       288.771      0.137297       28.3624      0.637867             0          9.05     0.0654009             0       28.6221      0.748894             0      0.417466             0             0      0.189589   1.95529e-15      0.175701        111589        103447   1.90352e+06   3.58246e-15
    0.0455455       290.368       288.773       0.14172       28.6133      0.637678             0       9.00253     0.0555016             0       28.4855      0.655859             0      0.334757             0             0      0.189691   1.98693e-15      0.175258        111594        103447   1.90403e+06   3.64043e-15