#           y             T         TMean   TPrime2Mean           U_x           U_y           U_z       UMean_x       UMean_y       UMean_z UPrime2Mea... UPrime2Mea... UPrime2Mea... UPrime2Mea... UPrime2Mea... UPrime2Mea...            O2           H2O          C3H8             p         pMean   pPrime2Mean           CO2
            0       289.597       288.166      0.293937       24.2133             0             0       22.7746             0             0       5.91824             0             0             0             0             0          0.23   2.81546e-18   7.86725e-10        113582        103679   4.05155e+06   5.15845e-18
  0.000500501       289.597       288.166        0.2939       24.2227      0.103393             0       22.7767    -0.0159825             0       5.93639      0.137206             0     0.0631285             0             0          0.23   2.86262e-17   4.70015e-09        113584        103679   4.05102e+06   5.24486e-17
     0.001001       289.597       288.166      0.293864        24.232       0.20681             0       22.7788    -0.0319575             0       5.95468      0.274419             0       0.12636             0             0          0.23   5.60623e-17   8.74039e-09        113585        103679   4.05048e+06   1.02717e-16
    0.0015015       289.601       288.166      0.294061       24.2092       0.32184             0       22.7703    -0.0441956             0        6.0425      0.415517             0      0.240826             0             0          0.23   8.94488e-16   7.60579e-08        113594        103679   4.05013e+06   1.63887e-15
     0.002002       289.604       288.166       0.29426       24.1864       0.43688             0       22.7618    -0.0564599             0       6.13065      0.556785             0       0.35593             0             0          0.23   1.81341e-15   1.46794e-07        113603        103680   4.04978e+06    3.3225e-15
    0.0025025       289.608       288.167      0.294828       24.1849      0.554357             0       22.7581    -0.0752604             0       6.29822      0.740487             0      0.629847             0             0          0.23   2.27755e-14   1.06873e-06        113612        103680   4.04879e+06    4.1729e-14
     0.003003       289.612       288.168      0.295462       24.1833      0.672054             0       22.7543    -0.0939799             0       6.46726      0.924214             0       0.90453             0             0          0.23   4.64386e-14   2.06541e-06        113620        103679   4.04782e+06   8.50842e-14
    0.0035035       289.618       288.176       0.30694       24.1488      0.826083             0       22.7336    -0.0992716             0       6.88158       1.11217             0       1.30608             0             0      0.229996   5.17561e-13   1.54449e-05        113630        103680   4.04829e+06   9.48268e-13
     0.004004       289.623       288.184       0.32126       24.1147      0.980825             0        22.713     -0.104673             0       7.29844       1.30175             0       1.71207             0             0      0.229993   1.08102e-12   3.02566e-05        113639        103680   4.04875e+06   1.98063e-12
    0.0045045       289.626       288.254      0.688015       24.1193       1.22399             0       22.7057     -0.123663             0       8.02977       1.69249             0       2.66967             0             0      0.229949    1.3094e-11   0.000222658        113640        103679   4.04903e+06   2.39907e-11
   0.00500501        289.63       288.327       1.13246       24.1247       1.46738             0       22.6979     -0.142414             0       8.76918       2.08237             0       3.63478             0             0        0.2299   2.69804e-11   0.000436303        113641        103678   4.04933e+06   4.94331e-11
   0.00550551       289.651       288.731       9.26873       24.2082       1.73325             0       22.6329     -0.137444             0       10.3089       2.38812             0       5.34401             0             0      0.229367    2.2633e-10    0.00275308        113638        103677   4.05259e+06    4.1468e-10
   0.00600601       289.673       289.148       18.3167       24.2927       2.00493             0        22.568     -0.132898             0       11.8443       2.70178             0       7.08182             0             0      0.228802   4.30897e-10    0.00520779        113635        103677   4.05588e+06   7.89484e-10
   0.00650651       289.762       290.523       102.428       24.4585       2.75505             0       22.5148     -0.163304             0       13.0223       3.66604             0       11.1723             0             0      0.225626   1.06496e-09     0.0190188        113622        103673   4.06094e+06   1.95121e-09
   0.00700701       289.854        291.93       192.843       24.6209       3.50743             0       22.4613      -0.19264             0       14.1776       4.62523             0       15.2803             0             0      0.222381   1.74716e-09     0.0331246        113608        103669   4.06607e+06   3.20113e-09
   0.00750751       290.225       295.574       727.248       24.5518       4.41865             0       22.3784     -0.146584             0       13.7357       5.22726             0        20.628             0             0      0.214362   5.81958e-09     0.0679915        113591        103665   4.07663e+06   1.06626e-08
   0.00800801       290.655       299.374       1374.35       24.4725       5.32739             0       22.2849      -0.10065             0       13.2895       5.78414             0       25.9868             0             0       0.20632   1.00286e-08      0.102955        113575        103660   4.08718e+06   1.83743e-08
   0.00850851       294.689       312.753       8952.34       23.7675       6.08352             0       21.5336    -0.0622623             0       12.5848       3.56399             0       32.0335             0             0      0.196914   2.26408e-08       0.14385        113553        103654   4.09719e+06   4.14821e-08
   0.00900901       298.813       326.099       16515.7       23.0517       6.84589             0       20.7843    -0.0216348             0       11.8726       1.32928             0       38.0645             0             0      0.187549    3.5313e-08      0.184568        113531        103647   4.10682e+06   6.46999e-08
   0.00950951       307.828       337.629       23278.9       21.7491       7.94809             0       20.1498       0.14116             0       10.7563      -1.69928             0       43.2427             0             0      0.180422   5.12609e-08      0.215558        113505        103643   4.09596e+06   9.39195e-08
      0.01001       316.814       348.963       29908.7       20.4341       9.05291             0       19.5114      0.306942             0       9.65895      -4.68188             0       48.3231             0             0       0.17339   6.70334e-08      0.246132        113478        103638   4.08482e+06   1.22818e-07
    0.0105105       324.416       350.672       30001.1       18.5074       10.2858             0       18.6761      0.619077             0        9.4893      -5.41189             0       48.6132             0             0      0.171044   7.42123e-08      0.256328        113460        103641   4.06045e+06   1.35971e-07
     0.011011       332.007       352.369       30106.1       16.5825       11.5042             0        17.826      0.928754             0       9.37184      -6.08834             0       48.8161             0             0      0.168795   8.11854e-08      0.266108        113443        103645   4.03612e+06   1.48747e-07
    0.0115115       339.095       353.577       30770.6       14.7313        12.076             0       16.3171       1.12914             0       11.5746      -4.38419             0       45.1413             0             0      0.170804   7.90141e-08      0.257373        113434        103651   4.01352e+06   1.44769e-07
     0.012012       346.233       354.793       31445.4       12.8902         12.63             0       14.8096       1.32663             0       13.7707      -2.65687             0       41.4379             0             0      0.172764   7.67954e-08      0.248851        113426        103658   3.99098e+06   1.40703e-07
    0.0125125       355.395       356.337       32543.8       11.4612       12.4629             0       13.3596       1.40664             0       15.6979     0.0126233             0       36.5685             0             0      0.172729   7.26525e-08      0.249003        113432        103663   3.97074e+06   1.33113e-07
     0.013013       364.506       357.872       33635.9       10.0519       12.2729             0       11.9293       1.48334             0       17.5509       2.64984             0       31.7359             0             0      0.172478   6.87314e-08      0.250095        113439        103668    3.9507e+06   1.25929e-07
    0.0135135       371.667       359.087       34493.9       9.38648       11.2251             0       11.2409       1.43582             0       16.6252       4.07823             0       28.2842             0             0      0.164122   7.31179e-08      0.286427        113453        103670     3.938e+06   1.33966e-07
     0.014014        378.67       360.243       35313.6       8.74127       10.1748             0       10.5742       1.38932             0       15.6592       5.45162             0       24.8629             0             0      0.155427   7.75694e-08      0.324229        113467        103673   3.92544e+06   1.42122e-07
    0.0145145       380.171       359.365       34804.3       8.79872       9.03777             0       10.6632       1.37792             0       13.2929       4.91607             0       22.4978             0             0      0.134997   8.42776e-08      0.413057        113472        103673   3.91764e+06   1.54412e-07
     0.015015       381.454       358.436       34244.3       8.88039       7.90352             0       10.7532       1.36535             0       10.9855       4.38688             0       20.1561             0             0      0.114733   9.04573e-08      0.501161        113476        103674   3.90993e+06   1.65735e-07
    0.0155155       375.705       355.874       32039.6       9.74505       6.85826             0       10.8761       1.31492             0       10.5794       4.06322             0       18.5686             0             0     0.0998456   7.95469e-08      0.565888        113475        103674   3.90535e+06   1.45745e-07
     0.016016       369.746       353.161       29744.9       10.6069       5.80651             0       11.0128       1.26248             0       10.2204       3.71346             0       17.0125             0             0     0.0856424   6.84679e-08      0.627641        113473        103673   3.90077e+06   1.25446e-07
    0.0165165       357.426       345.891         24731        11.385       4.55874             0       11.5659       1.14899             0       11.2861       2.57415             0       16.4088             0             0     0.0921263   5.22836e-08       0.59945        113469        103672   3.89634e+06   9.57933e-08
     0.017017       345.064       338.526         19699       12.1847       3.32163             0       12.1729       1.03029             0       12.3897        1.3591             0       15.8112             0             0     0.0991094   3.63754e-08      0.569089        113465        103671   3.89187e+06   6.66466e-08
    0.0175175        331.48       328.454         14154       13.5973       2.38732             0       14.3113      0.763474             0       14.5705      -2.00784             0       15.3891             0             0      0.120274   2.83119e-08      0.477068        113455        103670   3.88617e+06   5.18727e-08
     0.018018       318.145        318.49       8701.02       15.0105       1.49096             0       16.4504      0.504543             0       16.7548      -5.33507             0       14.9797             0             0      0.141307   2.03775e-08      0.385622        113446        103670   3.88038e+06   3.73354e-08
    0.0185185       311.496        311.42       5710.69       16.4382       1.61088             0       18.6103       0.45669             0       19.0315      -7.59876             0       14.9155             0             0      0.158798   1.58995e-08      0.309573        113430        103668   3.87224e+06   2.91309e-08
     0.019019       305.024       304.473        2797.3       17.7986       1.74949             0       20.7162      0.412293             0       21.2241      -9.77932             0       14.8515             0             0      0.175872   1.15026e-08      0.235337        113415        103667   3.86409e+06    2.1075e-08
    0.0195195       303.052       300.615       1831.46       17.4522       2.36104             0       21.4554      0.455368             0       21.2906      -9.85555             0        14.792             0             0      0.182385   9.15935e-09      0.207021        113403        103667   3.85563e+06   1.67816e-08
      0.02002       301.065       296.826       891.926       17.1347       2.97452             0       22.1813      0.498738             0       21.2941      -9.90495             0       14.7447             0             0       0.18888   6.82971e-09      0.178781        113391        103667   3.84742e+06   1.25133e-08
    0.0205205       298.733       294.696       583.566       17.5096        3.6342             0       22.5873      0.549189             0       19.7875       -9.3105             0       14.9908             0             0      0.194954   4.82765e-09      0.152375        113391        103666   3.84507e+06   8.84515e-09
     0.021021       296.415       292.604       283.745       17.9156       4.29986             0       22.9801      0.604203             0       18.2742      -8.67905             0       15.2862             0             0       0.20105   2.86585e-09       0.12587        113392        103665   3.84272e+06   5.25078e-09
    0.0215215       294.432       291.406       178.664       19.0289       5.10184             0       23.0739      0.763298             0       16.6073      -7.20387             0        16.706             0             0       0.20767   1.82257e-09     0.0970883        113398        103664   3.84061e+06    3.3393e-09
     0.022022       292.493       290.235       76.8929       20.1249       5.89829             0       23.1445      0.921647             0       14.9928      -5.67658             0       18.1386             0             0      0.214178   8.13866e-10     0.0687894        113404        103662   3.83852e+06   1.49115e-09
    0.0225225       291.522       289.647       47.0316       20.8451       6.57453             0       22.7111       1.06379             0       14.5166      -3.01734             0       19.8504             0             0      0.218273   5.56297e-10     0.0509856        113417        103659   3.83682e+06   1.01924e-09
     0.023023       290.582       289.075       18.2067       21.5573       7.25603             0       22.2319       1.21142             0        14.228     -0.252304             0       21.5564             0             0       0.22226   3.30477e-10     0.0336519        113430        103656   3.83508e+06   6.05496e-10
    0.0235235        290.28       288.836       10.8769        22.105       8.04658             0       20.8045       1.47291             0       17.8315       4.70695             0       23.1407             0             0      0.224004   7.63129e-10     0.0260703        113444        103651   3.83266e+06   1.39819e-09
     0.024024       289.991       288.605       3.82544       22.5835       8.81725             0       19.3155       1.72949             0       21.8706       9.67695             0       24.7907             0             0      0.225688   1.36276e-09     0.0187497        113457        103647    3.8302e+06   2.49683e-09
    0.0245245       289.963       288.542        2.2959       21.6888       9.19378             0       16.6026       1.88862             0       34.5502       14.8599             0       27.7426             0             0      0.226181   5.27413e-09     0.0166048        113465        103641   3.82696e+06   9.66318e-09
     0.025025       289.943       288.483      0.831309       20.6919       9.52442             0       13.8861       2.03117             0       47.3928       19.7931             0       30.7379             0             0       0.22663   1.06904e-08     0.0146513        113473        103635   3.82383e+06   1.95868e-08
    0.0255255       290.083       288.493      0.600636       17.7525       8.98297             0       11.1006       1.85871             0       63.3314       19.9806             0       34.5557             0             0      0.226243      4.47e-08     0.0163329        113475        103628   3.82281e+06   8.18987e-08
     0.026026       290.232       288.502      0.382011       14.7914       8.40984             0       8.35951       1.67584             0       78.7855       19.9563             0       38.3127             0             0      0.225789   9.14776e-08      0.018306        113478        103620   3.82197e+06   1.67604e-07
    0.0265265       290.551       288.524       0.38303       11.4356       7.25904             0       6.42779       1.30307             0       85.4068       16.0711             0       40.9628             0             0      0.224112   3.71026e-07     0.0255949        113475        103612   3.82447e+06   6.79789e-07
     0.027027       290.872       288.546      0.386111       8.17177       6.11235             0       4.52978      0.925247             0       91.4937       12.1489             0       43.5518             0             0       0.22237   7.06107e-07     0.0331686        113472        103604   3.82702e+06   1.29372e-06
    0.0275275       291.248       288.567      0.425311       6.52066       5.03767             0       3.22235      0.459058             0       88.2201       7.58056             0       45.0691             0             0      0.219477   2.01404e-06     0.0457329        113460        103596   3.83052e+06    3.6901e-06
     0.028028        291.62       288.589      0.464787       4.99076       3.97863             0       1.94204   -0.00638309             0       84.7693       3.06171             0       46.5253             0             0      0.216625   3.47175e-06     0.0581154        113448        103588    3.8339e+06   6.36089e-06
    0.0285285       291.923       288.606      0.508896       5.50428       3.18343             0       1.11915     -0.459203             0       78.3317     -0.622012             0       46.9507             0             0      0.214473   7.45416e-06     0.0674329        113429        103581   3.83532e+06   1.36574e-05
     0.029029       292.238       288.624       0.55604       6.07343       2.38856             0      0.310169     -0.908432             0       71.9215      -4.21734             0       47.3126             0             0      0.212405   1.18024e-05     0.0763774        113410        103574    3.8364e+06   2.16241e-05
    0.0295295        292.76       288.642       0.65247       7.54598       1.59902             0     -0.272791      -1.29933             0        65.958      -6.37705             0       46.6443             0             0      0.211717   2.20917e-05     0.0792661        113387        103569   3.83192e+06   4.04762e-05
      0.03003       293.382       288.661      0.769426       9.02702      0.806137             0     -0.848548      -1.68711             0       60.0815      -8.46474             0       45.9271             0             0      0.211027   3.33163e-05     0.0821481        113365        103563   3.82692e+06   6.10417e-05
    0.0305305       295.581         288.7       1.20796        10.641    -0.0390906             0      -1.31145      -2.02618             0       55.5695      -9.42419             0       44.4445             0             0      0.210327   5.91921e-05     0.0849251        113345        103559   3.81398e+06   0.000108451
     0.031031       297.876       288.741        1.6861       12.2432     -0.886816             0      -1.76971      -2.36032             0        51.216      -10.3346             0       42.9341             0             0      0.209623   8.55159e-05     0.0877194        113326        103555   3.80043e+06   0.000156681
    0.0315315       301.623       288.802       2.76347       13.6662      -1.77234             0      -2.15755      -2.61985             0       49.2598      -10.5035             0       41.0031             0             0      0.208842   0.000118618     0.0907752        113310        103553   3.77784e+06   0.000217331
     0.032032       305.315       288.863       3.85808       15.0655      -2.66076             0      -2.53813      -2.87448             0       47.4254      -10.6534             0        39.067             0             0      0.208091   0.000150906      0.093709        113294        103552   3.75476e+06   0.000276489
    0.0325325       308.187       288.921       5.20469       16.1164      -3.59163             0      -2.81233      -3.05731             0       47.3714      -10.5261             0       37.0579             0             0      0.207778   0.000171279     0.0948603        113280        103552   3.72478e+06   0.000313815
     0.033033       310.961       288.979       6.53808       17.1194      -4.51631             0      -3.07852      -3.23502             0         47.31      -10.3843             0       35.0552             0             0      0.207497   0.000190729     0.0958819        113267        103552    3.6946e+06   0.000349451
    0.0335335       312.329       289.021       7.68428       17.4451      -5.35323             0      -3.23137      -3.34026             0       47.1427       -10.037             0        33.143             0             0      0.207669   0.000197115     0.0950678        113254        103553    3.6617e+06   0.000361151
     0.034034       313.582       289.062       8.78072       17.7087      -6.17585             0      -3.37688      -3.44167             0       46.8963       -9.6646             0       31.2446             0             0      0.207903   0.000202184     0.0939986        113241        103554   3.62899e+06   0.000370438
    0.0345345       313.252        289.08         9.195       17.1226      -6.80245             0      -3.42188      -3.49046             0       45.5647      -8.94674             0       29.5373             0             0      0.208984   0.000189199     0.0894338        113230        103556   3.59889e+06   0.000346649
     0.035035        312.73       289.095       9.50846       16.4929      -7.42061             0      -3.46158      -3.53571             0       44.1559      -8.20466             0       27.8461             0             0       0.21012   0.000174729     0.0846431        113218        103558   3.56923e+06   0.000320135
    0.0355355       309.657        289.07       8.48255        15.284       -7.9266             0      -3.43102      -3.53382             0       41.7214      -7.14059             0       26.3686             0             0      0.211993   0.000140508     0.0768514        113208        103561   3.54544e+06   0.000257437
     0.036036        306.53       289.044       7.41198       14.0654       -8.4418             0      -3.39507      -3.52873             0       39.2379      -6.08069             0       24.9135             0             0      0.213823   0.000106623     0.0692424        113197        103563   3.52223e+06   0.000195354
    0.0365365        302.71       288.992       5.76569       12.7196      -9.07558             0      -3.28971      -3.48236             0       36.1211      -5.07442             0       23.7465             0             0      0.215101   7.70638e-05     0.0639894        113185        103565   3.50647e+06   0.000141195
     0.037037       299.024       288.942        4.1702        11.349      -9.71101             0       -3.1803      -3.43234             0       32.9901      -4.07272             0       22.6059             0             0      0.216315   4.87406e-05     0.0590007        113173        103567   3.49134e+06   8.93019e-05
    0.0375375       297.025       288.905       3.21047       9.66714      -10.3669             0      -3.02021      -3.33649             0       29.6807      -3.12808             0       21.7947             0             0      0.216732   3.58869e-05     0.0573182        113154        103569   3.48415e+06   6.57515e-05
     0.038038       295.131        288.87       2.30146       7.93793      -11.0053             0       -2.8568      -3.23738             0       26.4271      -2.16818             0       20.9987             0             0      0.217133   2.36063e-05     0.0557034        113135        103571    3.4777e+06   4.32512e-05
    0.0385385       294.527       288.861       2.00922       5.63325      -11.4313             0      -2.65305      -3.09856             0       23.8527      -1.02285             0       20.3884             0             0      0.217328   1.82935e-05     0.0549112        113114        103573   3.48037e+06   3.35171e-05
     0.039039       293.955       288.854       1.74102       3.30434      -11.8372             0      -2.44685      -2.95722             0       21.3955      0.137719             0       19.7751             0             0      0.217514   1.32645e-05     0.0541511        113094        103575   3.48379e+06   2.43031e-05
    0.0395395       293.765       288.863       1.75705       0.68911      -12.0053             0      -2.21171      -2.78601             0       20.3239       1.47844             0       19.1271             0             0      0.217606   1.15911e-05     0.0537708        113078        103577   3.49608e+06    2.1237e-05
      0.04004       293.586       288.874       1.79357      -1.92403      -12.1576             0      -1.97341      -2.61378             0        19.368       2.81204             0       18.4625             0             0      0.217682   1.00805e-05     0.0534531        113063        103579   3.50902e+06   1.84693e-05
    0.0405405       293.522       288.899       2.06581      -4.51316      -12.1283             0      -1.69876      -2.42988             0       19.7436       4.06367             0       17.6078             0             0      0.217589   1.04434e-05     0.0538565        113059        103582   3.52943e+06   1.91342e-05
     0.041041       293.471       288.925       2.37458      -7.08764      -12.0828             0      -1.42021      -2.24567             0        20.191       5.29251             0       16.7363             0             0      0.217478   1.09471e-05      0.054332        113056        103585   3.55026e+06   2.00572e-05
    0.0415415       293.556       288.969       3.09227      -9.49817      -11.8555             0      -1.09784        -2.058             0       21.4411       6.26624             0       15.6767             0             0      0.217178   1.30281e-05     0.0556146        113067        103588   3.57581e+06   2.38699e-05
     0.042042       293.651       289.016       3.89271      -11.8763       -11.614             0     -0.771694      -1.87101             0        22.731       7.21294             0       14.6038             0             0      0.216872   1.52844e-05     0.0569227        113079        103591   3.60157e+06   2.80039e-05
    0.0425425       293.861       289.086       5.59545      -13.9012      -11.2179             0     -0.404275      -1.69157             0       24.4533       7.86472             0        13.386             0             0      0.216497   1.94535e-05     0.0585092        113104        103595   3.62958e+06   3.56424e-05
     0.043043       294.088       289.159       7.45456      -15.8765      -10.8054             0    -0.0355289      -1.51335             0       26.2046       8.48405             0        12.163             0             0      0.216128   2.41413e-05     0.0600647        113131        103599   3.65757e+06   4.42314e-05
    0.0435435       294.494       289.259       10.9756      -17.3238       -10.219             0      0.347333      -1.34816             0       28.2642       8.75849             0       10.8848             0             0      0.215822   3.43425e-05     0.0612916        113166        103603   3.68525e+06   6.29218e-05
     0.044044       294.965        289.36       14.6764      -18.7069      -9.61472             0      0.730439      -1.18452             0       30.3318       9.00236             0       9.61208             0             0      0.215516   4.65248e-05     0.0624985        113201        103606    3.7127e+06   8.52422e-05
    0.0445445       296.115       289.482       20.2401      -19.4248      -8.82584             0       1.11609      -1.03686             0       32.4823       8.92939             0       8.39614             0             0      0.215209   7.92395e-05     0.0634986        113238        103610   3.73779e+06   0.000145182
     0.045045       297.502       289.606       26.0153      -20.0959      -8.03322             0        1.4991     -0.891127             0        34.608       8.82668             0       7.19176             0             0      0.214869   0.000119716     0.0645611        113275        103614   3.76249e+06   0.000219341
    0.0455455       301.285       289.746       33.9303      -20.2944      -7.20278             0       1.85544      -0.76486             0       36.4836       8.42333             0        6.1043             0             0      0.214198   0.000238668     0.0662549        113307        103618   3.78328e+06   0.000437285