#           y             T         TMean   TPrime2Mean           U_x           U_y           U_z       UMean_x       UMean_y       UMean_z UPrime2Mea... UPrime2Mea... UPrime2Mea... UPrime2Mea... UPrime2Mea... UPrime2Mea...            O2           H2O          C3H8             p         pMean   pPrime2Mean           CO2
  1.11022e-19       291.386       288.317      0.666086       36.7332  -1.36503e-14             0       21.3798  -1.33761e-15             0       37.1614  -1.42794e-14             0   6.82995e-16             0             0      0.229944   7.83471e-06   0.000164508        113429        103645   3.49113e+06   1.43546e-05
  0.000500501       291.828       288.475       2.93317       36.7658     -0.349152             0       21.3819     0.0399381             0       37.2028     -0.280382             0      0.114801             0             0      0.229804   3.93471e-05   0.000448527        113442        103645   3.49084e+06   7.20912e-05
     0.001001       292.279       288.634       5.34656       36.7984     -0.698315             0       21.3841     0.0798715             0       37.2452      -0.56083             0      0.229627             0             0      0.229662   7.15056e-05   0.000734999        113456        103645   3.49055e+06   0.000131012
    0.0015015       296.473       289.847       80.7719        36.833      -1.05235             0       21.4075      0.117474             0       37.8141     -0.874338             0      0.357291             0             0      0.228478   0.000426111    0.00224548        113499        103645   3.48942e+06   0.000780715
     0.002002       300.756       291.075       160.736       36.8691       -1.4057             0        21.431      0.155139             0       38.3882      -1.18738             0       0.48546             0             0      0.227273   0.000788323    0.00376421        113543        103645    3.4883e+06    0.00144435
    0.0025025       326.948       296.028       1370.92       37.2716      -1.59037             0       21.4998      0.208536             0       40.2785       -1.3835             0      0.739187             0             0      0.221124     0.0030445    0.00733733        113569        103644   3.48809e+06     0.0055781
     0.003003       353.694       301.089       2739.49       37.6837      -1.77489             0       21.5697      0.261919             0       42.2105      -1.58033             0      0.993688             0             0      0.214876    0.00534322     0.0109086        113596        103644   3.48788e+06    0.00978978
    0.0035035        472.41       323.964       30345.9       39.7018      -1.93452             0       21.8188      0.312967             0       51.0561      -1.89465             0       1.37622             0             0       0.19206     0.0146889     0.0141743        113606        103643   3.48657e+06     0.0269127
     0.004004       593.183       346.875       58080.6       41.7613      -2.09085             0        22.069      0.364189             0       59.9696      -2.20886             0       1.76058             0             0      0.169017     0.0241334     0.0174122        113616        103643   3.48526e+06     0.0442169
    0.0045045       969.105       374.242        101717       48.9498      -1.83686             0       22.4547      0.436863             0       77.3128      -2.50871             0       2.37294             0             0      0.117819     0.0458401      0.017193        113611        103642   3.48534e+06     0.0839877
   0.00500501       1344.03        401.43        145111       56.1261      -1.59546             0       22.8389      0.508809             0       94.6294      -2.83023             0       2.98881             0             0     0.0667978     0.0674679     0.0170172        113605        103642   3.48544e+06      0.123614
   0.00550551       1620.34       410.951        164485       62.0809      -2.60081             0       23.0761      0.508758             0       109.312      -5.29702             0       3.95385             0             0     0.0332548      0.081274     0.0211388        113585        103641   3.48814e+06      0.148909
   0.00600601       1893.16       420.363        183623       67.9721      -3.60323             0         23.31      0.508715             0       123.894      -7.76376             0       4.91881             0             0   0.000113634      0.094899     0.0253719        113566        103640   3.49082e+06      0.173873
   0.00650651        1878.9       420.782        183268       68.6323      -4.36454             0       23.2808      0.509356             0       130.145      -10.2259             0       5.87801             0             0   5.64801e-05     0.0936172     0.0387838        113551        103640    3.4911e+06      0.171524
   0.00700701        1864.4       421.169        182834       69.2831      -5.12352             0       23.2489       0.51011             0       136.359      -12.6855             0       6.84247             0             0   1.25595e-07     0.0923254      0.052294        113536        103639   3.49138e+06      0.169157
   0.00750751       1833.29       419.282        176772       69.2827      -5.71845             0       23.0224      0.518865             0       139.864      -14.9608             0       8.17632             0             0   6.23504e-08     0.0903349     0.0727355        113521        103639   3.49158e+06       0.16551
   0.00800801       1801.93       417.392        170704       69.2759      -6.31709             0       22.7939      0.527538             0       143.382      -17.2388             0       9.51146             0             0   1.17091e-10     0.0883327     0.0932981        113505        103638   3.49177e+06      0.161842
   0.00850851       1755.57       415.267        164197       68.8758      -7.14385             0       22.4372      0.531266             0       147.749      -19.6798             0       10.9262             0             0   5.80665e-11     0.0856057      0.121305        113492        103637   3.49068e+06      0.156846
   0.00900901       1709.08       413.176        157751         68.47      -7.96701             0       22.0789      0.534755             0       152.101       -22.119             0       12.3458             0             0   1.03409e-13     0.0828678      0.149423        113478        103636   3.48958e+06      0.151829
   0.00950951       1654.92       412.989        154633       67.7594      -8.59365             0       21.6254      0.525283             0        155.69      -24.4604             0       14.0309             0             0   5.12281e-14     0.0795391      0.183607        113463        103635    3.4878e+06       0.14573
      0.01001       1600.88       412.784        151493       67.0345      -9.21576             0       21.1712      0.515733             0       159.225      -26.7906             0       15.7183             0             0   8.95778e-17     0.0762134       0.21776        113447        103634     3.486e+06      0.139637
    0.0105105       1552.94       411.702        147277       65.6122      -9.61651             0       20.6851      0.502367             0       160.144      -28.5775             0       17.5189             0             0   4.43401e-17     0.0730371      0.250377        113434        103633   3.48377e+06      0.133818
     0.011011       1505.04       410.578        143006       64.1798      -10.0081             0       20.1987      0.488697             0       161.022       -30.355             0         19.32             0             0   1.23113e-19     0.0698605      0.282997        113421        103632   3.48153e+06      0.127997
    0.0115115       1458.57       407.559        136323       62.2957      -9.99165             0       19.6975      0.461559             0        160.09      -31.7161             0       21.1463             0             0   1.27957e-18     0.0666691      0.315762        113406        103630   3.47878e+06       0.12215
     0.012012       1412.19       404.573        129721       60.4163      -9.97997             0       19.1963      0.434318             0        159.19      -33.0798             0       22.9761             0             0   3.97446e-18      0.063487      0.348431        113390        103629   3.47603e+06       0.11632
    0.0125125       1369.34       402.914        126439       58.7326      -10.1612             0       18.6898      0.402887             0       159.626      -34.5512             0       24.9514             0             0   6.92323e-17     0.0606824      0.377218        113377        103627   3.47327e+06      0.111182
     0.013013          1327       401.288        123234       57.0635      -10.3474             0       18.1849      0.370988             0       160.073      -36.0253             0       26.9371             0             0   1.85553e-16     0.0579192      0.405582        113364        103625   3.47048e+06      0.106119
    0.0135135       1304.16       400.872        122915       55.9409      -10.7161             0        17.741      0.321557             0       160.932      -37.5988             0       29.3115             0             0   2.21476e-15      0.056701      0.418079        113351        103623   3.46697e+06      0.103887
     0.014014       1281.62       400.484        122654       54.8265      -11.0904             0       17.2995      0.271725             0       161.737      -39.1596             0       31.6883             0             0   6.51511e-15     0.0555143      0.430253        113337        103621   3.46346e+06      0.101713
    0.0145145       1269.93       401.036        124420       54.0018       -11.659             0       16.9388      0.207996             0       160.624      -40.2806             0       34.1504             0             0   8.96562e-14     0.0554162      0.431248        113326        103619   3.45997e+06      0.101533
     0.015015       1258.47         401.6        126219       53.1891      -12.2328             0       16.5786      0.144765             0       159.449      -41.3706             0       36.6074             0             0   2.31414e-13     0.0553379       0.43204        113314        103616   3.45644e+06      0.101389
    0.0155155       1254.06       402.552        129082        52.761      -12.9765             0       16.2375     0.0976647             0         156.3      -41.4627             0       38.9012             0             0   2.26845e-12     0.0558975      0.426281        113305        103614     3.452e+06      0.102415
     0.016016       1249.98       403.502        131947       52.3407      -13.7276             0       15.8983     0.0505458             0       153.235      -41.5958             0        41.216             0             0   5.70282e-12     0.0564747       0.42034        113295        103611   3.44757e+06      0.103472
    0.0165165       1255.68       404.359        134899       52.1556      -14.7065             0       15.6214    0.00287097             0       152.754      -42.9689             0       44.1694             0             0   5.14068e-11     0.0575877      0.408904        113287        103609   3.44316e+06      0.105511
     0.017017       1261.69       405.216        137852       51.9736      -15.6881             0       15.3484    -0.0449028             0       152.497      -44.4314             0       47.1761             0             0   1.42268e-10      0.058725      0.397218        113278        103606   3.43867e+06      0.107595
    0.0175175       1276.59       406.042        140861       51.8786      -16.7451             0       15.1858    -0.0954885             0       158.626      -48.4318             0       51.6994             0             0   1.51613e-09     0.0605562      0.378412        113270        103604   3.43214e+06       0.11095
     0.018018       1291.64       406.875        143887       51.7935      -17.8185             0       15.0249      -0.14582             0       164.947      -52.5028             0       56.2613             0             0   4.39446e-09     0.0623996      0.359481        113261        103601   3.42568e+06      0.114328
    0.0185185       1310.61       407.849        147361       51.9743      -19.3279             0       14.9115     -0.189342             0       176.414      -58.4602             0       61.8586             0             0   4.75589e-08     0.0645723      0.337171        113251        103599   3.42118e+06      0.118308
     0.019019       1329.41       408.781        150771        52.163      -20.8633             0       14.7938     -0.231445             0        187.63      -64.3378             0       67.4606             0             0   1.39393e-07     0.0667357      0.314956        113241        103597    3.4167e+06      0.122272
    0.0195195       1344.08       408.661        152576       52.5538       -23.056             0       14.5697     -0.237599             0       192.477      -68.1973             0        73.183             0             0   1.46335e-06      0.068664      0.295155        113228        103595   3.41292e+06      0.125805
      0.02002        1358.6        408.48        154271       52.9058      -25.2571             0       14.3399     -0.240932             0       196.856      -71.8856             0       78.8324             0             0   3.99273e-06     0.0705917      0.275355        113214        103593   3.40905e+06      0.129337
    0.0205205       1369.49       406.819        153340       52.3255      -27.6627             0       13.9751     -0.176545             0       189.965      -71.4662             0        82.727             0             0   3.54522e-05     0.0725031      0.255598        113197        103591   3.40297e+06      0.132839
     0.021021       1380.17       405.142        152347        51.663      -30.0243             0         13.61     -0.110255             0       183.047      -71.0178             0       86.6227             0             0    8.3968e-05     0.0743947       0.23597        113181        103589   3.39713e+06      0.136305
    0.0215215       1386.24       403.083        149916       49.1249      -31.3831             0       13.2405   -0.00054058             0       175.501      -69.9102             0       90.5459             0             0   0.000521528      0.075837      0.219262        113159        103587   3.39667e+06      0.138947
     0.022022       1390.08       401.034        147450        46.485       -32.634             0       12.8749      0.113258             0       168.185      -68.7843             0       94.3185             0             0    0.00129013     0.0771293      0.202654        113139        103586   3.39767e+06      0.141315
    0.0225225       1345.44       399.192        144241       41.6296      -31.5417             0       12.5945      0.315807             0       165.883      -67.2591             0       94.8202             0             0    0.00925128     0.0751645       0.18821        113152        103586   3.43027e+06      0.137715
     0.023023       1299.74       397.141        140713       36.7906      -30.4407             0       12.3086      0.528454             0       162.968      -65.2384             0       94.9332             0             0     0.0174857     0.0730834       0.17377        113165        103588   3.46524e+06      0.133902
    0.0235235       1231.84        390.78        130557       32.2917      -29.1618             0        11.907      0.950553             0       147.336      -52.9389             0       86.9847             0             0     0.0313879     0.0685907      0.159443        113189        103593   3.54937e+06      0.125671
     0.024024       1163.91       384.165        119991       27.8564       -27.832             0       11.5008       1.38061             0       131.257      -40.3579             0       79.0459             0             0     0.0454118     0.0640208      0.145379        113213        103598   3.63435e+06      0.117298
    0.0245245       1095.27        372.52        101269       24.6807      -25.4935             0       11.0008       1.96857             0       106.307      -22.1931             0       71.3005             0             0     0.0618491     0.0579211      0.136527        113262        103606   3.73623e+06      0.106122
     0.025025       1021.31       360.569       82226.2       21.4809      -23.0447             0       10.5097         2.553             0       81.9458      -4.52094             0       63.8445             0             0     0.0788199     0.0515607       0.12803        113313        103613   3.83512e+06     0.0944688
    0.0255255       846.376       342.807         57095       17.8242      -18.5021             0       10.1894       3.07056             0       68.7536       3.78836             0       61.8873             0             0      0.105929     0.0402474      0.126297        113407        103616   3.87727e+06     0.0737407
     0.026026       672.938        325.27       32458.5       14.2998      -14.0787             0        9.8772       3.57658             0       55.9486       11.7086             0        60.085             0             0      0.132768      0.029048      0.124568        113501        103618   3.91728e+06     0.0532213
    0.0265265       526.849       311.823       16840.7       13.1864      -11.8275             0       9.71181        3.8721             0       50.2031        12.537             0       61.1056             0             0      0.154689     0.0199251      0.122907        113584        103618    3.9186e+06     0.0365065
     0.027027       387.382       298.981       2027.53       12.1875      -9.66642             0       9.55079       4.16428             0       44.6965       13.3484             0       62.1494             0             0      0.175838     0.0111447      0.121085        113664        103618   3.91894e+06     0.0204192
    0.0275275        363.92       296.738        1311.8       13.1929      -9.08245             0       9.46634       4.39795             0       43.3754       13.8608             0       63.5978             0             0      0.183481    0.00836298       0.11641        113689        103617    3.9022e+06     0.0153225
     0.028028        341.28       294.582       629.822       14.1138      -8.52275             0       9.37913        4.6316             0       42.0869       14.3945             0       65.0426             0             0      0.190924    0.00565668       0.11183        113715        103616   3.88546e+06     0.0103641
    0.0285285       332.517       293.887       516.831       13.6124      -8.37246             0       9.24525       4.86478             0       41.3471       15.2868             0       66.4262             0             0      0.194996    0.00422186      0.108851        113743        103615   3.86859e+06    0.00773523
     0.029029       324.066       293.213       407.732       13.1273      -8.23249             0       9.10906       5.09775             0       40.6193         16.18             0       67.7771             0             0      0.198935    0.00283623      0.105951        113773        103615   3.85229e+06     0.0051965
    0.0295295       320.689       292.883        361.83       12.9082      -8.26022             0       8.93538       5.32725             0       40.0848       17.0886             0       68.5967             0             0       0.20069    0.00224961      0.104343        113822        103615   3.84501e+06    0.00412171
      0.03003       317.447        292.56       317.001       12.7216       -8.2784             0       8.76154       5.55787             0       39.5924       17.9998             0        69.406             0             0      0.202376    0.00168674      0.102789        113870        103615   3.83706e+06    0.00309043
    0.0305305       316.315       292.357       288.991       13.0434      -8.14701             0       8.58515       5.80608             0       39.7589       18.9536             0       70.0532             0             0       0.20299    0.00149582      0.102079        113902        103614   3.81847e+06    0.00274062
     0.031031       315.213       292.157       261.421       13.3494      -8.02603             0       8.40758       6.05398             0       39.9295       19.9023             0       70.6829             0             0      0.203579    0.00131157      0.101407        113933        103614   3.79994e+06    0.00240305
    0.0315315        314.58       291.993       240.483       13.4152      -8.06242             0       8.21217        6.2971             0       40.1632       20.7728             0       71.0487             0             0      0.203796     0.0012284      0.101318        113960        103614   3.78213e+06    0.00225066
     0.032032       313.966        291.83       219.833       13.4881      -8.09264             0        8.0164       6.53981             0       40.4182       21.6261             0       71.3992             0             0      0.203995    0.00115105      0.101249        113986        103613   3.76408e+06    0.00210894
    0.0325325       313.642       291.683       203.383       13.6658      -8.03251             0       7.81557       6.77663             0       40.9849       22.2264             0       71.5256             0             0      0.203928    0.00115882       0.10146        113990        103613   3.74241e+06    0.00212317
     0.033033       313.325       291.538       187.222       13.8343      -7.97672             0       7.61401       7.01159             0       41.5662       22.8003             0       71.6361             0             0      0.203844    0.00117201      0.101688        113994        103613   3.72092e+06    0.00214734
    0.0335335       313.105       291.412       175.146       13.8715      -7.98238             0       7.40216       7.22025             0       42.3531       23.0019             0       71.5207             0             0      0.203525    0.00126193      0.102153        113989        103613   3.70204e+06     0.0023121
     0.034034       312.901       291.287       163.244        13.914      -7.98226             0        7.1898       7.42649             0         43.16       23.1721             0         71.38             0             0      0.203186    0.00135986      0.102624        113983        103613   3.68327e+06    0.00249153
    0.0345345       312.913       291.169       153.702       14.0282      -7.90294             0        6.9705       7.59949             0       44.2391       22.9119             0       70.8902             0             0       0.20257    0.00156756      0.103168        113972        103614   3.66591e+06    0.00287206
     0.035035       312.955       291.051       144.276       14.1416      -7.82259             0       6.75009       7.76891             0       45.3277       22.6185             0       70.3703             0             0      0.201936    0.00178307      0.103711        113961        103615   3.64879e+06    0.00326691
    0.0355355       313.385       290.935       136.388       14.2443      -7.72856             0       6.51502       7.89078             0       46.5416       21.8839             0       69.4501             0             0      0.201062    0.00210243      0.104232        113944        103616   3.63483e+06    0.00385204
     0.036036       313.835       290.821       128.612       14.3542      -7.62721             0        6.2782       8.00859             0       47.7601       21.1183             0       68.4926             0             0        0.2002    0.00241843      0.104739        113928        103618     3.621e+06    0.00443101
    0.0365365       314.535       290.711       122.275       14.5557      -7.43146             0       6.01898       8.07421             0       49.0379        19.952             0       67.0527             0             0      0.199483    0.00269109      0.105055        113910        103620   3.60903e+06    0.00493057
     0.037037       315.225       290.602       116.053       14.7602      -7.23328             0       5.75712       8.13506             0       50.3137       18.7574             0       65.5756             0             0      0.198795    0.00295315      0.105361        113893        103623    3.5972e+06    0.00541072
    0.0375375       315.786       290.508       111.293       15.0007      -7.00469             0       5.46232        8.1364             0       51.5637       17.2094             0       63.6322             0             0      0.198452     0.0030826      0.105523        113881        103625   3.58712e+06    0.00564789
     0.038038       316.311       290.417       106.646       15.2432       -6.7724             0       5.16427       8.13295             0       52.8128       15.6418             0       61.6491             0             0      0.198129    0.00320359      0.105683        113868        103628   3.57715e+06    0.00586957
    0.0385385       316.399       290.351       103.378       15.5106      -6.49519             0       4.82666       8.07125             0        54.052       13.8356             0       59.1842             0             0      0.198055    0.00322176      0.105819        113862        103632    3.5685e+06    0.00590287
     0.039039       316.429       290.286       100.157       15.7777      -6.22108             0       4.48559       8.00447             0       55.2931       12.0206             0       56.6863             0             0      0.198009    0.00322822      0.105954        113856        103635   3.55994e+06     0.0059147
    0.0395395       315.785       290.239       97.4891       16.0418      -5.98355             0       4.10361       7.87775             0       56.5562       10.1017             0       53.7991             0             0      0.198291    0.00309624      0.106082        113854        103639   3.55254e+06    0.00567289
      0.04004       315.054       290.193       94.8504       16.2996      -5.74371             0       3.71908       7.74601             0       57.8037       8.18366             0       50.8878             0             0      0.198614    0.00294738      0.106207        113852        103643   3.54525e+06    0.00540015
    0.0405405       313.311       290.159       92.5451       16.4851      -5.47737             0       3.30509       7.55647             0       58.8721       6.27559             0       47.6992             0             0      0.199403    0.00260438      0.106298        113849        103648   3.53918e+06     0.0047717
     0.041041       311.535       290.126       90.2588       16.6681      -5.20923             0       2.89053       7.36153             0       59.8904       4.36962             0       44.4951             0             0      0.200203     0.0022571      0.106383        113847        103653   3.53324e+06    0.00413542
    0.0415415       309.387         290.1       88.1843       16.8243      -4.92099             0       2.46958       7.10606             0       60.3468       2.48709             0       41.1177             0             0      0.201131    0.00186196      0.106405        113850        103658   3.52876e+06    0.00341146
     0.042042       307.289       290.075       86.0963       16.9713      -4.62734             0       2.05022       6.84584             0        60.749      0.615602             0       37.7311             0             0      0.202037    0.00147654       0.10642        113853        103663   3.52452e+06    0.00270529
    0.0425425       305.731       290.056       83.8604       17.0191      -4.27478             0       1.64827       6.53367             0         60.56      -1.13545             0       34.2439             0             0      0.202711    0.00119699       0.10636        113857        103668   3.52269e+06    0.00219311
     0.043043       304.217       290.037       81.5934       17.0604      -3.92558             0       1.24788       6.21737             0       60.3491      -2.86478             0        30.761             0             0      0.203364   0.000927211       0.10629        113860        103673   3.52092e+06    0.00169882
    0.0435435       303.181       290.024       78.9956       17.0338      -3.61219             0      0.863994       5.85719             0       59.9062      -4.36331             0       27.3243             0             0      0.203796   0.000761273      0.106114        113857        103678   3.51971e+06    0.00139479
     0.044044       302.177       290.012       76.3681       16.9935      -3.29028             0      0.482292       5.49361             0       59.4272      -5.81384             0       23.9074             0             0      0.204216   0.000602561       0.10592        113854        103683   3.51867e+06      0.001104
    0.0445445       301.502           290       73.4314       16.8119      -2.88006             0      0.123205       5.09484             0       58.5733      -6.76696             0       20.6946             0             0        0.2045   0.000518739      0.105545        113858        103688   3.51939e+06   0.000950427
     0.045045       300.834       289.987        70.402        16.603      -2.46623             0     -0.231243       4.69151             0       57.6409      -7.65298             0       17.5094             0             0      0.204784   0.000438715      0.105131        113861        103693   3.52026e+06   0.000803808
    0.0455455       300.227       289.956       66.4355       16.1186      -2.01582             0     -0.538787       4.24202             0       55.9131      -7.86051             0       14.6037             0             0       0.20507   0.000397086      0.104315        113868        103697   3.52258e+06   0.000727535