#           y             T         TMean   TPrime2Mean           U_x           U_y           U_z       UMean_x       UMean_y       UMean_z UPrime2Mea... UPrime2Mea... UPrime2Mea... UPrime2Mea... UPrime2Mea... UPrime2Mea...            O2           H2O          C3H8             p         pMean   pPrime2Mean           CO2
  1.11022e-19       295.766       288.598       3.46683       43.3698  -6.81579e-18             0       18.6344   5.17384e-18             0       70.3293  -3.22917e-17             0   2.48579e-17             0             0      0.228492   0.000494792    0.00147791        112355        103638   3.12242e+06   0.000906551
  0.000500501       306.237       289.157        40.985       43.5255    -0.0307263             0       18.6511     0.0233242             0       70.8472     -0.145575             0      0.112062             0             0      0.226382    0.00127665    0.00262689        112339        103638   3.12247e+06    0.00233906
     0.001001       316.777       289.721        80.014        43.683     -0.061461             0       18.6678     0.0466521             0       71.3701     -0.291065             0      0.224363             0             0      0.224261    0.00206282    0.00377836        112322        103638   3.12252e+06    0.00377948
    0.0015015       361.727       292.762       872.907       44.7878    -0.0963557             0       18.7336     0.0717989             0       74.3949     -0.394433             0      0.455761             0             0      0.216769    0.00500293     0.0061722        112321        103637   3.12253e+06     0.0091663
     0.002002       407.068       295.843       1718.72        45.898     -0.130591             0       18.7997     0.0969878             0         77.45      -0.49649             0      0.687667             0             0      0.209244    0.00795781    0.00855731        112319        103637   3.12255e+06     0.0145802
    0.0025025       549.994       308.797       15742.6       48.3456  -0.000651175             0       18.9467      0.132684             0       88.0631      -0.27215             0       1.04616             0             0      0.193533     0.0145917    0.00876941        112330        103637   3.12291e+06     0.0267348
     0.003003       693.981       321.776       29846.4       50.8075      0.134567             0       19.0942      0.168425             0       98.7512     -0.045162             0       1.40544             0             0      0.177727     0.0212677    0.00896379        112341        103636   3.12327e+06     0.0389664
    0.0035035       1013.63       338.892       57195.7       55.6254       1.14419             0       19.3276      0.211646             0       121.852       0.62069             0       1.89564             0             0      0.146146     0.0349111    0.00622232        112342        103636    3.1236e+06     0.0639637
     0.004004        1332.7       355.945       84484.8       60.4593       2.15089             0       19.5612      0.254871             0       145.025       1.28749             0       2.38682             0             0      0.114504     0.0485767    0.00351974        112343        103635   3.12393e+06     0.0890016
    0.0045045       1580.76       365.153        104314       67.2851       2.79451             0       19.8117      0.298689             0       177.109       2.07188             0       2.99908             0             0     0.0752633     0.0649913    0.00563862        112350        103635   3.12489e+06      0.119076
   0.00500501        1826.5       374.294        123991       74.0942       3.43158             0       20.0613      0.342448             0       209.129       2.85588             0       3.61236             0             0     0.0362342     0.0813026    0.00789856        112357        103634   3.12583e+06      0.148961
   0.00550551       1841.97       376.722        128591       79.2603        3.4202             0       20.2162      0.380341             0       234.821       3.60254             0       4.32729             0             0     0.0181273     0.0873922     0.0241244        112364        103633   3.12661e+06      0.160119
   0.00600601       1856.71       379.108        133089       84.3834       3.40608             0       20.3693      0.418029             0       260.321       4.33908             0       5.04218             0             0   0.000236291     0.0933742     0.0405157        112371        103633   3.12738e+06      0.171079
   0.00650651       1812.04       378.036        129086       85.9793       3.16703             0       20.3829      0.438758             0       270.019       4.24358             0       5.75371             0             0   0.000117892     0.0905019     0.0705358        112379        103632   3.12824e+06      0.165816
   0.00700701       1767.37       376.953        125062       87.5463       2.92801             0       20.3955      0.459321             0        279.58       4.14074             0       6.46586             0             0   1.14275e-06     0.0876242      0.100604        112387        103631    3.1291e+06      0.160544
   0.00750751       1723.79       375.044        119556       87.0857       2.69185             0       20.3434      0.468246             0       279.481       3.52128             0       7.22135             0             0   5.68171e-07     0.0843724       0.13402        112394        103630   3.12992e+06      0.154586
   0.00800801       1680.22       373.137        114061        86.613       2.45679             0       20.2909      0.477191             0       279.314       2.90099             0       7.97907             0             0   2.76305e-09     0.0811237      0.167405        112400        103630   3.13074e+06      0.148634
   0.00850851       1637.76       371.305        109269       85.3981        2.2899             0       20.2237      0.487381             0       274.961       2.22902             0       8.87367             0             0   1.37188e-09     0.0780683      0.198807        112403        103629   3.13177e+06      0.143036
   0.00900901       1595.16       369.487        104502       84.1704       2.12415             0        20.156      0.497735             0       270.573       1.55875             0       9.77044             0             0   5.69866e-12     0.0750071      0.230268        112407        103628    3.1328e+06      0.137427
   0.00950951       1545.33        368.35        101084       82.2417       2.02095             0       20.0599      0.517069             0       264.289      0.980607             0       10.7862             0             0   2.82996e-12     0.0716305      0.264959        112405        103627   3.13418e+06       0.13124
      0.01001       1495.42       367.228       97697.1       80.3057       1.91903             0       19.9626      0.536629             0       257.988      0.407549             0       11.8036             0             0    1.8441e-14     0.0682491      0.299699        112403        103625   3.13556e+06      0.125045
    0.0105105       1442.18       366.823       95820.5       78.0174       1.87977             0       19.8078      0.567285             0       250.798     0.0837129             0       12.9012             0             0   9.15328e-15     0.0646394      0.336765        112395        103624    3.1371e+06      0.118431
     0.011011       1389.31       366.419         93959       75.7419       1.84005             0       19.6513      0.598058             0       243.599      -0.23474             0       13.9992             0             0   6.91336e-17     0.0610636      0.373483        112388        103623   3.13864e+06       0.11188
    0.0115115       1353.23       366.025       92770.8       74.0341       1.78051             0       19.4233      0.634074             0       235.942     -0.313894             0        15.117             0             0   3.42709e-17     0.0589943      0.394709        112377        103621   3.14057e+06      0.108089
     0.012012       1317.69       365.623       91586.9       72.3432       1.71988             0       19.1935      0.670062             0       228.293     -0.390486             0       16.2347             0             0   2.41923e-19     0.0569823      0.415346        112365        103620    3.1425e+06      0.104402
    0.0125125       1303.84        364.93       90580.5       71.3446       1.61521             0       18.8912       0.70491             0       220.944     -0.362931             0       17.3544             0             0   1.19878e-19     0.0573029      0.412019        112350        103618   3.14459e+06       0.10499
     0.013013       1290.57       364.244       89608.8       70.3372        1.5132             0       18.5873      0.739578             0       213.648     -0.338515             0       18.4734             0             0   9.92833e-22     0.0576661      0.408256        112336        103616   3.14669e+06      0.105655
    0.0135135       1298.77        363.81       89939.8       69.0014       1.51122             0       18.2233      0.767501             0       208.309     -0.431675             0       19.5678             0             0   4.92412e-22     0.0596231      0.388139        112323        103614   3.14899e+06      0.109241
     0.014014       1307.89       363.406       90340.7       67.6481       1.51274             0       17.8593      0.795073             0       203.113     -0.524976             0       20.6614             0             0   5.91968e-24     0.0616171      0.367641        112311        103613   3.15129e+06      0.112894
    0.0145145       1349.02       364.033       93166.4       65.6837       1.63578             0       17.4954      0.810477             0       202.896     -0.623184             0        21.728             0             0   2.92476e-24     0.0648963      0.333961        112300        103611    3.1539e+06      0.118902
     0.015015       1390.98       364.688       96051.2        63.739       1.75363             0       17.1326      0.825198             0       202.824     -0.729549             0       22.7936             0             0   1.93932e-26     0.0681904      0.300127        112289        103609   3.15651e+06      0.124938
    0.0155155       1459.63       366.259        100847       62.4319       1.70335             0        16.805      0.817819             0       207.463      -1.09969             0       23.8275             0             0   9.57735e-27     0.0719695      0.261318        112277        103608   3.15947e+06      0.131861
     0.016016       1528.33       367.829        105638       61.1981       1.64146             0       16.4781      0.809866             0       212.148      -1.47596             0       24.8615             0             0   7.43986e-29     0.0757225      0.222776        112265        103606   3.16243e+06      0.138738
    0.0165165       1598.36       369.357        110303       62.1808       1.22797             0        16.173      0.784534             0       218.229      -2.03794             0       25.8976             0             0   3.66343e-29     0.0786872      0.192329        112250        103604   3.16526e+06       0.14417
     0.017017       1667.69       370.859        114904       63.2299      0.805506             0       15.8681       0.75887             0       224.277      -2.60638             0       26.9342             0             0   1.51443e-31     0.0816134      0.162277        112235        103603   3.16809e+06      0.149531
    0.0175175       1717.37       371.634        117695       66.1697      0.127744             0       15.5721      0.723763             0       229.368      -3.35819             0       27.9825             0             0   7.44634e-32     0.0834426      0.143491        112220        103601   3.17085e+06      0.152882
     0.018018       1766.37       372.388        120428       69.1058     -0.547791             0       15.2762      0.688771             0       234.377      -4.10425             0       29.0303             0             0   2.50528e-34     0.0852476      0.124954        112206        103600   3.17362e+06      0.156189
    0.0185185       1797.19       372.571        121608       71.9458      -1.16367             0       14.9836      0.656858             0        237.18      -4.69644             0       30.0677             0             0   1.23014e-34     0.0864038      0.113079        112194        103598   3.17633e+06      0.158308
     0.019019       1827.55       372.742        122756       74.7026       -1.7698             0       14.6907      0.625006             0       239.823      -5.28273             0       31.1054             0             0   3.38305e-37     0.0875462      0.101347        112182        103597   3.17903e+06      0.160401
    0.0195195        1846.6        372.61        123056       75.3505      -2.12914             0       14.3863      0.594684             0       238.412      -5.72012             0       32.1497             0             0   1.65936e-37     0.0883375       0.09322        112170        103596   3.18175e+06      0.161851
      0.02002       1865.31       372.463        123323       75.8786      -2.47533             0       14.0812      0.564372             0       236.833      -6.15179             0       33.1969             0             0   4.52789e-40     0.0891185     0.0851991        112158        103594   3.18446e+06      0.163282
    0.0205205       1875.97       371.978        122795       73.5293      -2.50583             0       13.7599      0.534273             0       231.206       -6.4465             0       34.3105             0             0   2.21852e-40     0.0896521      0.079718        112145        103593   3.18692e+06      0.164259
     0.021021       1886.41       371.466        122221       71.1126      -2.52688             0       13.4377      0.504124             0        225.47       -6.7403             0       35.4265             0             0    6.0166e-43     0.0901784     0.0743125        112133        103592   3.18937e+06      0.165224
    0.0215215       1891.61       370.354        120611       67.1569      -2.33239             0        13.098       0.47285             0       217.251      -7.01341             0       36.5939             0             0   2.94505e-43     0.0905369     0.0706301        112121        103591   3.19151e+06       0.16588
     0.022022       1896.65       369.225        118976       63.2432      -2.14354             0       12.7572       0.44164             0        208.94      -7.27737             0       37.7584             0             0   8.45261e-46     0.0908899     0.0670039        112109        103590   3.19364e+06      0.166527
    0.0225225       1898.25       367.731        116769       60.2445      -2.07716             0       12.3924      0.411825             0       198.634      -7.34282             0       38.8605             0             0     4.133e-46      0.091124     0.0645985        112098        103589   3.19579e+06      0.166956
     0.023023       1899.78       366.233        114553        57.355       -2.0249             0       12.0268      0.381815             0       188.275      -7.40766             0        39.959             0             0   1.18254e-48     0.0913557     0.0622175        112087        103588   3.19791e+06      0.167381
    0.0235235       1899.89       364.663        112140       56.7325      -2.26546             0       11.6444      0.347752             0       176.831      -7.45988             0       40.9841             0             0   5.77511e-49     0.0915382     0.0603428        112079        103587   3.19945e+06      0.167715
     0.024024          1900       363.086        109711       56.2112      -2.51596             0       11.2623      0.313429             0       165.424      -7.50904             0       41.9991             0             0   1.48913e-51     0.0917224     0.0584514        112070        103586   3.20097e+06      0.168052
    0.0245245          1900        361.36        106951       57.6963      -2.96361             0       10.8858      0.273923             0       154.768      -7.49762             0       42.8118             0             0   7.26471e-52     0.0919388     0.0562298        112064        103586   3.20212e+06      0.168449
     0.025025          1900        359.61        104173        59.224      -3.41589             0       10.5116      0.234341             0       144.317      -7.48019             0       43.6113             0             0   2.02563e-54     0.0921589     0.0539703        112058        103585   3.20321e+06      0.168852
    0.0255255          1900       357.413        101051       61.5603      -3.95605             0       10.1809       0.19332             0       137.731      -7.34871             0       44.1595             0             0   3.72976e-54     0.0924491     0.0509911        112054        103585   3.20313e+06      0.169384
     0.026026          1900       355.228       97975.2       63.8551      -4.49216             0       9.85363      0.152075             0        131.43      -7.22979             0       44.6983             0             0    9.6242e-54     0.0927416     0.0479892        112050        103585   3.20302e+06       0.16992
    0.0265265       1899.99       353.288         95727       65.3937      -4.95433             0        9.5901       0.10676             0       130.331      -7.33976             0       45.0655             0             0   9.19115e-53     0.0930744     0.0445731        112047        103585   3.20255e+06       0.17053
     0.027027       1899.98       351.402       93547.5       66.8575      -5.40774             0        9.3302     0.0613549             0       129.423       -7.4574             0       45.4249             0             0    8.0454e-52     0.0934054     0.0411751        112045        103585   3.20209e+06      0.171136
    0.0275275       1899.96       350.469       92573.2       67.0094      -5.70781             0       9.13396      0.014365             0       131.869      -7.70927             0       45.6462             0             0   1.25598e-50     0.0937055     0.0380954        112044        103585   3.20165e+06      0.171686
     0.028028       1899.93       349.562       91613.6       67.1398      -6.00279             0       8.94023    -0.0326883             0       134.355      -7.96738             0       45.8637             0             0   1.74887e-49     0.0940041     0.0350303        112042        103585   3.20114e+06      0.172233
    0.0285285       1899.84       349.094       90903.3       66.9089      -6.21216             0       8.78876    -0.0808093             0       137.511      -8.33059             0       46.0183             0             0   2.87543e-48     0.0942786     0.0322128        112041        103585    3.1993e+06      0.172736
     0.029029       1899.75        348.64       90209.9       66.6979      -6.41947             0        8.6379      -0.12883             0       140.595       -8.6924             0       46.1643             0             0   4.01178e-47     0.0945537     0.0293896        112040        103585   3.19743e+06       0.17324
    0.0295295       1899.54       348.404       89790.4       66.8115      -6.59345             0       8.49711     -0.175217             0       142.515      -9.03157             0       46.1703             0             0   6.38367e-46     0.0948377      0.026475        112040        103586   3.19495e+06       0.17376
      0.03003       1899.33       348.178       89390.8       66.9187      -6.76301             0       8.35683     -0.221439             0       144.413      -9.37212             0       46.1606             0             0   7.74574e-45       0.09512     0.0235777        112040        103587   3.19243e+06      0.174277
    0.0305305       1899.19       348.105       89301.1       66.9254      -6.86321             0       8.22458     -0.265081             0       145.947      -9.73429             0       45.9058             0             0   1.16829e-43     0.0953759      0.020951        112040        103588   3.18936e+06      0.174746
     0.031031       1899.05       348.039       89225.3       66.9129      -6.96004             0       8.09247     -0.308207             0       147.444       -10.092             0       45.6322             0             0   1.29829e-42      0.095626     0.0183843        112041        103588   3.18628e+06      0.175205
    0.0315315        1899.1       348.081       89360.4       66.6091      -7.00586             0       7.96257      -0.34351             0       148.388      -10.3816             0       45.0728             0             0   1.87037e-41     0.0957876     0.0167258        112042        103590   3.18319e+06      0.175501
     0.032032       1899.16       348.123       89497.9       66.3016      -7.04969             0       7.83334     -0.378037             0       149.284      -10.6665             0        44.494             0             0   1.83488e-40      0.095943     0.0151301        112044        103591   3.18008e+06      0.175786
    0.0325325       1899.34        348.18       89670.8       65.9405      -7.06459             0       7.71389     -0.401213             0        149.49      -10.8823             0       43.6299             0             0   2.50369e-39     0.0960091     0.0144518        112048        103592   3.17673e+06      0.175907
     0.033033       1899.52       348.233         89836       65.5749       -7.0783             0       7.59639       -0.4236             0       149.666      -11.0965             0       42.7507             0             0   2.21401e-38     0.0960724     0.0138028        112051        103593   3.17339e+06      0.176022
    0.0335335       1899.68       348.217       89891.1       65.1456       -7.0752             0       7.50663     -0.434817             0       149.416      -11.2866             0       41.6579             0             0   2.86827e-37     0.0960953     0.0135676        112057        103595    3.1701e+06      0.176064
     0.034034       1899.83       348.196       89936.9       64.7117      -7.07115             0       7.41952     -0.445516             0       149.137      -11.4761             0       40.5554             0             0   4.22577e-36     0.0961164     0.0133508        112064        103597   3.16679e+06      0.176103
    0.0345345        1899.9       348.103       89856.4       64.2136      -7.05406             0       7.36861       -0.4491             0       148.443      -11.6581             0        39.319             0             0   5.85236e-35     0.0961128     0.0133878        112073        103598   3.16332e+06      0.176096
     0.035035       1899.96       348.006         89769       63.7128      -7.03553             0       7.32064     -0.452561             0       147.733      -11.8377             0       38.0764             0             0    9.1064e-34     0.0961074     0.0134431        112082        103600   3.15985e+06      0.176087
    0.0355355       1899.98       347.859       89590.4       63.1746      -6.99781             0       7.31159     -0.454381             0       146.807      -11.9863             0       36.7507             0             0   1.23623e-32     0.0960784     0.0137406        112094        103602   3.15629e+06      0.176033
     0.036036          1900        347.71       89409.3       62.6341      -6.95798             0       7.30494     -0.456025             0       145.877      -12.1347             0       35.4214             0             0   2.02142e-31      0.096048     0.0140524        112106        103604   3.15272e+06      0.175978
    0.0365365          1900       347.549       89195.7       62.0642      -6.89094             0       7.32924     -0.455409             0       144.904      -12.2813             0       34.0462             0             0   2.69037e-30     0.0959997      0.014548        112120        103605   3.14906e+06      0.175889
     0.037037          1900       347.395       88990.3       61.4946      -6.82216             0        7.3554     -0.454309             0       143.969      -12.4331             0        32.669             0             0   3.29069e-29     0.0959514      0.015043        112133        103607   3.14539e+06      0.175801
    0.0375375          1900       347.322         88886       60.9288      -6.73167             0       7.40476     -0.447158             0       143.518      -12.6512             0       31.2672             0             0   4.10102e-28     0.0959037      0.015532        112148        103609   3.14175e+06      0.175714
     0.038038          1900       347.254       88787.3        60.367      -6.64063             0       7.45649     -0.439674             0       143.135      -12.8789             0       29.8655             0             0   4.77077e-27     0.0958579     0.0160027        112162        103611   3.13809e+06      0.175629
    0.0385385          1900       347.233       88756.1       59.8531      -6.54275             0       7.53708     -0.428146             0       143.585      -13.2233             0       28.4661             0             0    5.7562e-26     0.0958336     0.0162516        112176        103613   3.13418e+06      0.175585
     0.039039          1900       347.199       88701.5       59.3433      -6.44373             0       7.62006     -0.416696             0       144.063       -13.583             0       27.0693             0             0   1.08008e-24     0.0958112      0.016482        112189        103615   3.13026e+06      0.175544
    0.0395395       1899.95       347.007       88370.8        58.883      -6.33128             0       7.73126     -0.406162             0       144.858      -14.1241             0       25.7025             0             0   1.35653e-23     0.0958098     0.0164956        112201        103616   3.12618e+06      0.175541
      0.04004       1899.87       346.799       88001.7       58.4283      -6.21721             0       7.84353     -0.395738             0       145.659      -14.6704             0       24.3433             0             0   2.69644e-22     0.0958111     0.0164829        112213        103618   3.12207e+06      0.175544
    0.0405405       1899.49       346.423       87190.5       58.0369      -6.08454             0       7.96818     -0.386584             0       146.525      -15.2753             0         23.07             0             0   3.32705e-21     0.0958417      0.016168        112224        103620   3.11778e+06        0.1756
     0.041041       1899.05       346.033       86324.3       57.6525      -5.94882             0       8.09078     -0.377163             0       147.337      -15.8617             0       21.8087             0             0   5.88507e-20     0.0958747     0.0158294        112234        103622   3.11347e+06       0.17566
    0.0415415       1897.94       345.482       84843.1       57.3451      -5.77912             0        8.1905     -0.364758             0       147.554      -16.2413             0       20.6818             0             0    7.0174e-19     0.0959334     0.0152265        112244        103623    3.1091e+06      0.175768
     0.042042       1896.84       344.865       83233.5       57.0503       -5.6094             0       8.28451     -0.351985             0       147.526      -16.5846             0       19.5547             0             0    9.6884e-18      0.095991     0.0146357        112254        103625   3.10478e+06      0.175873
    0.0425425       1895.87       343.517       80224.1       56.8934      -5.43958             0       8.31638     -0.335195             0       144.825      -16.5334             0       18.4247             0             0   1.09662e-16     0.0960356      0.014178        112264        103626   3.10114e+06      0.175955
     0.043043       1894.93       342.054       77072.9       56.7466       -5.2683             0       8.34182     -0.318262             0        141.79      -16.4271             0       17.2662             0             0   2.01554e-15     0.0960773     0.0137499        112275        103628    3.0976e+06      0.176031
    0.0435435        1894.3       339.379       72413.8       56.7066      -5.08135             0       8.29891     -0.299811             0       135.206      -15.7352             0        15.804             0             0   2.31144e-14     0.0960884     0.0136356        112285        103630   3.09509e+06      0.176052
     0.044044       1893.45       336.635         67725       56.6515      -4.89399             0       8.25044     -0.281971             0       128.466      -15.0031             0       14.3195             0             0   5.11037e-13     0.0960942     0.0135754        112296        103631    3.0927e+06      0.176063
    0.0445445        1890.3       333.188       62729.4       56.4407      -4.70233             0       8.14429     -0.270472             0       120.116      -13.8556             0       12.6038             0             0   5.83695e-12     0.0960455     0.0140763        112306        103633   3.09154e+06      0.175973
     0.045045       1886.15       329.708       57693.2       56.1288       -4.4976             0       8.03225     -0.259059             0       111.825      -12.6858             0       10.8929             0             0   1.30194e-10     0.0959836     0.0147112        112317        103635   3.09058e+06       0.17586
    0.0455455       1871.79       325.903       52247.1       54.7946      -4.16076             0       7.86071     -0.248511             0       104.145      -11.2902             0       9.23125             0             0   1.45808e-09     0.0957897     0.0167025        112328        103636   3.09159e+06      0.175505