#           y             T         TMean   TPrime2Mean           U_x           U_y           U_z       UMean_x       UMean_y       UMean_z UPrime2Mea... UPrime2Mea... UPrime2Mea... UPrime2Mea... UPrime2Mea... UPrime2Mea...            O2           H2O          C3H8             p         pMean   pPrime2Mean           CO2
  1.11022e-19        290.64         288.2      0.437434       30.2302  -1.37815e-15             0       23.3423  -6.89343e-16             0       13.7639  -1.41567e-15             0   7.69057e-17             0             0      0.229976   1.93419e-06   8.33491e-05        113649        103639   3.81488e+06    3.5438e-06
  0.000500501        290.71       288.208      0.452829       30.1896    -0.0506769             0       23.3415    0.00446575             0       13.7624     -0.174653             0     0.0467413             0             0      0.229905   1.04334e-05   0.000307748        113628        103639     3.815e+06    1.9116e-05
     0.001001       290.782       288.216      0.470556       30.1491     -0.101701             0       23.3408    0.00893116             0       13.7611     -0.349324             0     0.0935933             0             0      0.229832   1.90979e-05   0.000534733        113606        103639   3.81511e+06    3.4991e-05
    0.0015015        292.03       288.309       1.65233       30.2271     -0.325845             0       23.3456      0.013222             0       13.8335     -0.532376             0      0.195726             0             0      0.229268    0.00011021     0.0020525        113570        103639    3.8145e+06   0.000201926
     0.002002       293.321       288.405       2.93113       30.3046      -0.55002             0       23.3504     0.0175145             0       13.9061      -0.71539             0      0.298291             0             0      0.228696   0.000203206    0.00358474        113534        103638   3.81388e+06   0.000372311
    0.0025025       305.265       289.009       28.3702        30.273     -0.781859             0       23.3533     0.0222135             0       14.0211     -0.889023             0      0.508323             0             0      0.226187   0.000765212    0.00872199        113534        103638   3.81438e+06    0.00140201
     0.003003       317.385       289.623       55.0718       30.2453      -1.01443             0       23.3564     0.0269133             0        14.138      -1.06316             0      0.719843             0             0      0.223663    0.00133339     0.0138649        113534        103638   3.81488e+06    0.00244302
    0.0035035       358.612        292.02        290.94       30.8421      -1.36869             0       23.3915      0.031742             0       14.5664      -1.32044             0       1.17791             0             0      0.218509    0.00292406     0.0199464        113552        103637   3.81503e+06    0.00535742
     0.004004       401.349       294.469       560.349       31.4356      -1.71601             0       23.4267     0.0367065             0       14.9961      -1.57759             0       1.63788             0             0      0.213203    0.00458475      0.025972        113570        103636   3.81521e+06    0.00840012
    0.0045045        631.25       303.478       4988.78       31.6151      -1.20178             0       23.4774     0.0585186             0       15.5983      -1.81728             0       2.33252             0             0       0.18899     0.0149291     0.0250618        113592        103636   3.81751e+06     0.0273529
   0.00500501       862.351       312.782       9917.03       31.8275     -0.654902             0       23.5292     0.0814355             0       16.2202      -2.04563             0       3.03861             0             0      0.164651     0.0253329     0.0240856        113614        103635    3.8198e+06     0.0464145
   0.00550551       1212.26       351.398         64326       35.3095       3.12388             0          23.7      0.213743             0       18.7976      -1.15105             0       4.87755             0             0      0.127929     0.0416179     0.0165754        113604        103633    3.8199e+06     0.0762517
   0.00600601        1559.9        389.95        118724       38.7896       6.87336             0       23.8689      0.345901             0       21.3665     -0.268475             0       6.70921             0             0     0.0913054     0.0578574    0.00910167        113593        103632   3.81997e+06      0.106006
   0.00650651       1720.71       423.281        172187       42.1119       8.20976             0       23.8876      0.465766             0       23.2303     -0.374985             0       7.94172             0             0     0.0628344     0.0703516    0.00463463        113576        103630    3.8176e+06      0.128897
   0.00700701       1879.42       456.173        224936       45.4065       9.50238             0       23.9023      0.583739             0       25.0841     -0.489903             0       9.15264             0             0     0.0345507     0.0827563    0.00027194        113560        103628   3.81528e+06      0.151625
   0.00750751       1889.77       458.129        227414       46.7526       7.71152             0       23.6422      0.568492             0       26.2321      -1.19706             0       8.84276             0             0     0.0194585      0.088858    0.00325832        113564        103627    3.8172e+06      0.162804
   0.00800801       1899.94       460.057        229818       48.1082       5.94532             0       23.3768      0.553972             0       27.4208      -1.87765             0       8.54233             0             0    0.00457121     0.0948627    0.00635001        113568        103626    3.8191e+06      0.173806
   0.00850851       1898.37       460.188        227669       50.0421       5.69662             0       22.7879      0.584193             0       31.1065     -0.924608             0       8.82213             0             0    0.00228442        0.0949     0.0159175        113560        103625   3.81998e+06      0.173875
   0.00900901       1896.45       460.328        225520       51.9534       5.45207             0        22.191      0.614339             0       34.8443     0.0293143             0        9.0988             0             0    3.8455e-05     0.0949024     0.0256653        113552        103625   3.82084e+06      0.173879
   0.00950951       1875.43       460.954        223329       52.6238        5.4344             0       21.1601      0.640421             0       41.4212       1.03106             0       9.20464             0             0   1.91673e-05     0.0930032      0.045252        113546        103625   3.82139e+06      0.170399
      0.01001       1854.31         461.6        221176       53.2892       5.41928             0       20.1288      0.665967             0        48.044       2.03832             0       9.30597             0             0   2.62679e-07     0.0911007     0.0648694        113540        103625   3.82194e+06      0.166914
    0.0105105          1828       463.222        220854       53.7029       5.52922             0       19.0763      0.665326             0       56.9169       3.31588             0       9.18595             0             0   1.30434e-07      0.089043     0.0859942        113537        103625   3.82218e+06      0.163143
     0.011011       1801.97       464.794        220450       54.0847       5.63958             0       18.0314      0.663401             0        65.716       4.56896             0       9.07095             0             0   1.08621e-09     0.0870032      0.106934        113534        103625   3.82244e+06      0.159406
    0.0115115       1788.35        464.16        216441       53.0441       5.76866             0       17.3252      0.604381             0       71.2322       4.73349             0       9.17949             0             0   5.38812e-10     0.0857654      0.119647        113536        103625   3.82331e+06      0.157138
     0.012012       1774.66       463.452        212299         51.99       5.89454             0       16.6281      0.544914             0       76.6311       4.86852             0       9.29276             0             0   4.49529e-12     0.0845385      0.132248        113539        103625   3.82419e+06       0.15489
    0.0125125       1758.41       459.733        202756       50.3859        5.8906             0       16.3029      0.467247             0       77.2588       3.80365             0       9.59865             0             0   2.22808e-12     0.0837564      0.140296        113542        103625   3.82581e+06      0.153457
     0.013013       1741.76       455.988        193193       48.7909       5.88076             0       15.9838      0.389672             0        77.822       2.73623             0        9.9142             0             0   1.95705e-14     0.0829634      0.148457        113544        103625   3.82745e+06      0.152004
    0.0135135        1710.4       451.247        182887       47.5388       5.64978             0       15.8911      0.315561             0       75.9673       1.57366             0        10.592             0             0   1.02931e-14     0.0817598      0.160841        113545        103624   3.82974e+06      0.149799
     0.014014        1678.4       446.464        172582       46.2987       5.41263             0       15.8046      0.241828             0       74.0852      0.409239             0       11.2782             0             0   1.15358e-14     0.0805146       0.17365        113545        103623   3.83205e+06      0.147518
    0.0145145          1624       440.195        162314       45.4737       4.96103             0       15.9312      0.181258             0       71.2508     -0.819488             0       12.2536             0             0   3.77978e-13     0.0778255      0.201256        113543        103621   3.83502e+06      0.142591
     0.015015       1569.25       433.917        152090       44.6325       4.50876             0       16.0644      0.120737             0       68.4128      -2.04597             0       13.2412             0             0   7.11545e-12     0.0750896      0.229342        113542        103619   3.83801e+06      0.137578
    0.0155155        1503.1       427.318        143264       43.2717       4.03447             0       16.4107     0.0618194             0       65.4586      -3.19973             0       14.6222             0             0   2.19849e-10     0.0708406      0.272926        113540        103617   3.84154e+06      0.129793
     0.016016       1437.22       420.744        134478       41.9087       3.55625             0       16.7642    0.00333617             0       62.5145      -4.34431             0       16.0082             0             0   3.54389e-09     0.0665823      0.316605        113537        103615    3.8451e+06      0.121991
    0.0165165       1379.38       414.908        126897       40.4749       2.95894             0       17.3341    -0.0420163             0       59.8766      -5.21083             0       17.5476             0             0   1.00985e-07     0.0620445      0.363158        113538        103612   3.84946e+06      0.113677
     0.017017       1322.11       409.074        119319       39.0588       2.35392             0       17.9116    -0.0856861             0       57.2655      -6.03413             0        19.089             0             0   4.18211e-07     0.0575489      0.409278        113539        103609   3.85386e+06       0.10544
    0.0175175        1281.2       403.293        111813        38.144       1.52968             0       18.7035    -0.0815477             0       55.4133      -5.62975             0       20.6869             0             0   6.97992e-06     0.0542526      0.443075        113548        103606   3.85907e+06      0.099401
     0.018018       1240.92       397.517        104326       37.2344      0.704389             0       19.4911    -0.0760831             0       53.6089      -5.18751             0       22.2882             0             0   2.22199e-05     0.0510337      0.476041        113558        103602   3.86432e+06     0.0935033
    0.0185185       1217.57       391.839       97351.8       36.4637     -0.148802             0       20.1628    -0.0351035             0       53.0847      -3.73151             0       23.9849             0             0   0.000269844     0.0498871      0.486731        113581        103598   3.87052e+06     0.0914025
     0.019019       1190.91       386.157       90392.8       35.6373     -0.982737             0       20.8206     0.0050381             0       52.5726      -2.26984             0       25.6878             0             0    0.00121572     0.0485243      0.496606        113605        103594   3.87676e+06     0.0889055
    0.0195195       1080.65       380.362       83816.2       33.4006      -1.32919             0       21.1277     0.0239657             0       52.3639     -0.664691             0       27.5449             0             0     0.0198384     0.0416865      0.485829        113639        103589   3.88369e+06     0.0763775
      0.02002       968.803       374.565       77243.5       31.1599      -1.65152             0       21.4252     0.0426407             0       52.1032      0.936008             0       29.4122             0             0     0.0389244      0.034711      0.474451        113673        103584   3.89067e+06     0.0635971
    0.0205205       818.791       368.719       70766.6       28.8255      -1.39505             0       21.4922     0.0552551             0       50.5939       2.42984             0       31.5226             0             0     0.0691289     0.0244292      0.448673        113700        103580   3.89871e+06     0.0447588
     0.021021       673.739       362.959       64398.7       26.5714      -1.16343             0       21.5523     0.0674497             0       49.0393       3.91255             0       33.6422             0             0     0.0986282     0.0144703      0.422645        113727        103575   3.90677e+06     0.0265122
    0.0215215       641.836       359.162       60518.8       26.1469      -1.49855             0       21.4518     0.0700713             0       46.4501       5.14144             0       35.9717             0             0      0.112041     0.0118784      0.390935        113739        103570   3.91536e+06     0.0217635
     0.022022       621.502       355.532       56875.1        25.876      -1.82632             0       21.3437     0.0708049             0       43.8695       6.34973             0       38.3083             0             0      0.123629       0.01007      0.359113        113750        103565   3.92388e+06     0.0184502
    0.0225225       852.529       355.526         58362       28.9415      -1.99453             0       21.0685     0.0305157             0       41.4764       7.11031             0       40.7964             0             0     0.0955896     0.0252832      0.324857        113735        103560   3.93063e+06     0.0463235
     0.023023       1084.37       355.557       59912.5        32.061      -2.09236             0       20.7824    -0.0117805             0       39.1383       7.85419             0       43.2875             0             0     0.0673712     0.0405433      0.290898        113721        103555   3.93738e+06     0.0742829
    0.0235235       1333.02       356.354       62783.6       36.2983     -0.730812             0       20.2728    -0.0956995             0       37.9406       8.25156             0        45.838             0             0      0.035445     0.0567768      0.263067        113692        103550   3.94402e+06      0.104026
     0.024024       1571.98       357.095       65564.6       40.4543      0.471411             0       19.7584     -0.182328             0       36.8028       8.62794             0       48.3984             0             0    0.00494615     0.0723525      0.235783        113662        103545   3.95065e+06      0.132563
    0.0245245       1618.69       356.706       66560.7       42.9976      -1.48633             0       19.1493       -0.3227             0       36.8517       8.58811             0       51.1526             0             0    0.00275556     0.0748829      0.219332        113611        103540   3.95683e+06        0.1372
     0.025025       1662.71       356.317       67531.3       45.3939      -3.42182             0       18.5441      -0.46369             0       36.9027        8.5686             0       53.9078             0             0   0.000862003     0.0772634      0.203129        113560        103535   3.96296e+06      0.141561
    0.0255255       1655.67       355.925       68018.2       44.9974      -4.93449             0       18.0119     -0.616423             0       36.9922       8.93509             0       56.6826             0             0    0.00461206     0.0767943       0.19164        113508        103530   3.96831e+06      0.140701
     0.026026       1648.25        355.56       68559.9        44.563      -6.15578             0       17.4816     -0.768147             0       37.0948       9.33651             0       59.4548             0             0    0.00845351     0.0762911      0.180104        113460        103525   3.97384e+06      0.139779
    0.0265265       1634.18       355.678       70099.7       43.4384      -2.06482             0       16.9837     -0.901468             0       37.4352        10.375             0       62.1798             0             0     0.0139611     0.0751671      0.167695        113476        103519   3.98277e+06       0.13772
     0.027027       1624.57       355.831       71725.8       42.5304       2.12659             0       16.4819      -1.03539             0       37.8394       11.4341             0       64.9358             0             0     0.0190167     0.0742531      0.155098        113493        103514   3.99165e+06      0.136045
    0.0275275       1693.09       356.599       74862.1       45.4175       8.07764             0       15.9126      -1.17995             0       39.3599       12.8536             0       68.2363             0             0     0.0161542     0.0770153        0.1392        113513        103507   3.99973e+06      0.141106
     0.028028       1761.48       357.356       77973.1       48.2882       13.8501             0       15.3378      -1.32663             0       40.8823       14.2544             0       71.5233             0             0     0.0131343     0.0798271      0.123477        113532        103501   4.00793e+06      0.146258
    0.0285285       1827.57        357.94       80658.2       50.8818       16.6119             0        14.672      -1.50919             0       42.4371       15.3382             0       74.5822             0             0    0.00746332     0.0834759      0.110688        113551        103494   4.01831e+06      0.152943
     0.029029       1890.12       358.498       83284.5       53.3912       19.2295             0       14.0021      -1.69229             0       44.0302       16.4279             0       77.6188             0             0    0.00206614      0.086999     0.0979983        113571        103488   4.02882e+06      0.159398
    0.0295295       1895.21       358.654       84955.1       54.5319       19.5039             0       13.2674      -1.88411             0        46.246       17.6135             0       80.2915             0             0    0.00111593     0.0884807     0.0869108        113605        103482   4.04157e+06      0.162113
      0.03003          1900         358.8       86609.1       55.5891       19.7991             0       12.5286      -2.07536             0       48.4624       18.8171             0       82.9418             0             0   0.000220891     0.0899231     0.0759876        113637        103475   4.05408e+06      0.164756
    0.0305305          1900       358.785       88001.2       55.3376       20.4203             0       11.7252      -2.25775             0       50.6893       20.3036             0       85.2399             0             0   0.000190197     0.0907484     0.0676389        113649        103469    4.0628e+06      0.166268
     0.031031          1900       358.763       89386.6       55.0299       21.0333             0       10.9171        -2.439             0       52.9482       21.8215             0       87.5172             0             0    0.00015994     0.0915424     0.0596109        113660        103463   4.07138e+06      0.167723
    0.0315315          1900       358.623       90668.9       53.8729       21.5237             0       10.0369      -2.60305             0       55.6899       23.8156             0       89.4788             0             0   0.000136309     0.0918618     0.0564337        113669        103458   4.07789e+06      0.168308
     0.032032          1900       358.464       91906.5       52.5715       22.0084             0       9.15065      -2.76619             0       58.2417       25.7568             0       91.4093             0             0   0.000113242     0.0921579     0.0534931        113677        103454   4.08425e+06       0.16885
    0.0325325          1900        358.03       92489.8       49.1604       22.4085             0       8.17653      -2.91592             0       58.0157        26.926             0       92.8855             0             0   9.84238e-05     0.0921136     0.0540131        113678        103450   4.08835e+06      0.168769
     0.033033          1900       357.579       93024.2       45.7068       22.7754             0       7.20181      -3.06516             0       57.7342       28.0592             0       94.3209             0             0   8.28312e-05     0.0920635     0.0545957        113678        103446   4.09245e+06      0.168677
    0.0335335          1900       356.888       92866.1       41.6535       22.6726             0       6.21858      -3.20755             0       56.6682       28.6842             0       95.1792             0             0   5.62763e-05     0.0919319     0.0560643        113680        103443   4.09675e+06      0.168436
     0.034034          1900       356.194       92690.5       37.6909       22.6112             0       5.23858      -3.34814             0       55.7394       29.3514             0       96.0334             0             0   3.06381e-05     0.0917976     0.0575569        113682        103441   4.10112e+06       0.16819
    0.0345345       1899.99       355.444       92277.1       34.9719       23.1167             0       4.30276      -3.46423             0       56.6902       30.5975             0       96.8317             0             0   1.75652e-05     0.0916261      0.059379        113684        103439   4.10647e+06      0.167876
     0.035035       1899.99       354.695         91859       32.2794       23.5901             0        3.3677      -3.57978             0       57.6113       31.8124             0       97.5619             0             0   5.22546e-06     0.0914531     0.0612138        113685        103438   4.11186e+06      0.167559
    0.0355355       1899.98       353.956         91379       29.9381       23.6363             0       2.44269      -3.68829             0        58.137        32.613             0       97.3875             0             0   2.62558e-06     0.0912597     0.0632168        113688        103438   4.11774e+06      0.167205
     0.036036       1899.98       353.217       90892.6       27.7036       23.7005             0       1.51846      -3.79615             0       58.6753       33.3987             0       97.1579             0             0   2.05486e-07     0.0910737     0.0651427        113690        103438   4.12348e+06      0.166864
    0.0365365       1899.98       352.473         90324       26.8467       23.9968             0      0.604267      -3.89552             0        59.377       33.9941             0       96.2165             0             0   1.02583e-07     0.0909833     0.0660746        113688        103439   4.12751e+06      0.166698
     0.037037       1899.98       351.721       89734.4       26.0131       24.3031             0     -0.310811      -3.99442             0       60.0226       34.5107             0       95.1798             0             0   7.04702e-09     0.0909005     0.0669275        113686        103441   4.13133e+06      0.166547
    0.0375375       1899.99       350.882       88881.2       25.4716       24.7351             0      -1.23692       -4.0874             0        59.967       34.0423             0       92.9506             0             0   3.68863e-09     0.0909138     0.0667916        113683        103444   4.13245e+06      0.166571
     0.038038       1899.99       350.032       87999.7       24.9648       25.1252             0      -2.16166      -4.17951             0        59.935       33.5193             0       90.6003             0             0   5.69536e-10     0.0909334     0.0665903        113680        103448   4.13339e+06      0.166607
    0.0385385          1900       349.041       86775.1       24.8801        25.006             0      -3.06964      -4.26115             0       60.1887       32.3331             0       86.7777             0             0   3.59876e-10     0.0910301     0.0655946        113686        103453   4.13226e+06      0.166784
     0.039039       1899.99       348.039       85525.4       24.7754       24.8454             0      -3.97359       -4.3404             0       60.4723       31.1244             0       82.8769             0             0   1.61764e-10     0.0911307     0.0645587        113692        103458    4.1309e+06      0.166968
    0.0395395       1899.93       346.903       83979.2       24.4342       24.1956             0      -4.83005      -4.39141             0       61.1079       29.6492             0        78.051             0             0   1.00155e-10     0.0912774     0.0630471        113708        103465   4.12685e+06      0.167237
      0.04004       1899.66       345.759       82413.7       24.0543       23.4784             0        -5.678      -4.43915             0       61.8086       28.1837             0       73.1706             0             0   4.19883e-11      0.091428     0.0614955        113725        103472   4.12266e+06      0.167513
    0.0405405          1897       344.519         80626       23.2308       21.9865             0      -6.42822      -4.44934             0       63.2575       26.8292             0       67.6633             0             0   2.33928e-11     0.0916236     0.0594837        113756        103480   4.11677e+06      0.167871
     0.041041       1894.23       343.275       78821.4       22.3404       20.4598             0      -7.16585      -4.45491             0       64.7602       25.5061             0       62.1558             0             0   6.10001e-12      0.091841     0.0572474        113786        103489   4.11073e+06       0.16827
    0.0415415       1890.29       341.972       76828.7       20.7006       18.5434             0      -7.76258      -4.40872             0       66.8645       24.5355             0       56.6468             0             0   3.39059e-12     0.0923034     0.0524968        113820        103498   4.10302e+06      0.169117
     0.042042       1886.75       340.665       74820.2       19.0116       16.6222             0      -8.34371      -4.35735             0       69.0148       23.5911             0       51.1591             0             0   8.79953e-13     0.0927766     0.0476362        113854        103507   4.09525e+06      0.169984
    0.0425425       1887.71       339.313         72639       16.7858       14.6485             0      -8.75467      -4.24934             0       71.6675       22.9329             0       45.9043             0             0   5.36973e-13     0.0933671      0.041575        113887        103517   4.08683e+06      0.171066
     0.043043       1888.92       337.953       70440.3       14.5685       12.6944             0      -9.14924      -4.13525             0       74.3615       22.2865             0        40.699             0             0    2.1672e-13     0.0939174     0.0359254        113919        103526   4.07839e+06      0.172074
    0.0435435       1892.82       336.516       68056.5       12.4417        10.949             0      -9.36963      -3.95639             0        77.495       21.7652             0       36.0201             0             0   1.38006e-13     0.0940423     0.0346487        113943        103534    4.0699e+06      0.172303
     0.044044       1896.52       335.052       65634.2       10.3601       9.22971             0      -9.57392      -3.77229             0       80.6805       21.2362             0       31.3937             0             0    7.6997e-14     0.0941112     0.0339476        113965        103543   4.06145e+06      0.172429
    0.0445445       1898.22       333.307       62812.1       8.74757       7.78189             0      -9.61142      -3.53375             0       84.4053       20.6278             0       27.3111             0             0   1.99465e-13        0.0936     0.0392105        113978        103551   4.05343e+06      0.171493
     0.045045       1899.79       331.461         59863       7.30998         6.364             0      -9.63241      -3.29014             0       88.2847       20.0252             0       23.2834             0             0   1.34111e-11     0.0930765     0.0446009        113989        103559   4.04552e+06      0.170534
    0.0455455        1899.9       328.596       55629.7       7.64095       5.24877             0      -9.48637      -2.99531             0       93.7267       19.4818             0       19.8126             0             0   1.58968e-10     0.0924283     0.0512802        113982        103566   4.03872e+06      0.169346