#           y             T         TMean   TPrime2Mean           U_x           U_y           U_z       UMean_x       UMean_y       UMean_z UPrime2Mea... UPrime2Mea... UPrime2Mea... UPrime2Mea... UPrime2Mea... UPrime2Mea...            O2           H2O          C3H8             p         pMean   pPrime2Mean           CO2
         0.02       288.375       288.087      0.156637       24.3418      -6.93662             0       21.7765     -0.864001             0       41.8881      -2.48765             0       20.0911             0             0      0.222164   2.59998e-14     0.0340698        102745        103142        173268   4.76366e-14
    0.0201677       288.333       288.084      0.151653       23.9623      -7.02445             0        21.786     -0.843545             0       41.7213      -1.69279             0       20.4404             0             0      0.222731   2.20527e-14      0.031605        102745        103141        173889   4.04047e-14
    0.0203353       288.292        288.08      0.146668       23.5828      -7.11227             0       21.7955     -0.823088             0       41.5545     -0.897938             0       20.7897             0             0      0.223298   1.81056e-14     0.0291401        102744        103141        174510   3.31729e-14
     0.020503        288.25       288.077      0.141683       23.2033       -7.2001             0       21.8049     -0.802632             0       41.3876     -0.103082             0       21.1391             0             0      0.223865   1.41585e-14     0.0266753        102744        103140        175132    2.5941e-14
    0.0206707       288.209       288.074      0.136699       22.8237      -7.28792             0       21.8144     -0.782176             0       41.2208      0.691773             0       21.4884             0             0      0.224432   1.02114e-14     0.0242105        102744        103140        175753   1.87092e-14
    0.0208383       288.167       288.071      0.131714       22.4442      -7.37575             0       21.8239      -0.76172             0        41.054       1.48663             0       21.8377             0             0      0.224999   6.26428e-15     0.0217456        102743        103139        176374   1.14773e-14
     0.021006       288.127       288.068      0.126778       22.0549      -7.45744             0       21.8277     -0.740909             0       40.8922       2.28564             0       22.1892             0             0      0.225515   2.44757e-15     0.0195007        102743        103138        176996    4.4844e-15
    0.0211737       288.127       288.071      0.123155       21.4022       -7.3741             0       21.6786     -0.710539             0       40.8667       3.19655             0       22.5974             0             0       0.22467   2.14064e-15     0.0231756        102743        103138        177652   3.92206e-15
    0.0213413       288.126       288.073      0.119532       20.7496      -7.29075             0       21.5294      -0.68017             0       40.8412       4.10746             0       23.0057             0             0      0.223824   1.83372e-15     0.0268505        102743        103137        178307   3.35972e-15
     0.021509       288.126       288.076      0.115908       20.0969       -7.2074             0       21.3803       -0.6498             0       40.8157       5.01838             0        23.414             0             0      0.222979    1.5268e-15     0.0305254        102742        103136        178962   2.79739e-15
    0.0216767       288.126       288.079      0.112285       19.4443      -7.12406             0       21.2312     -0.619431             0       40.7901       5.92929             0       23.8223             0             0      0.222134   1.21988e-15     0.0342003        102742        103136        179618   2.23505e-15
    0.0218443       288.126       288.081      0.108662       18.7916      -7.04071             0        21.082     -0.589061             0       40.7646        6.8402             0       24.2306             0             0      0.221289   9.12963e-16     0.0378752        102742        103135        180273   1.67272e-15
     0.022012       288.126       288.084      0.105156       18.1335      -6.95163             0       20.9221     -0.560068             0       40.7309       7.74414             0       24.6449             0             0      0.220405   6.30132e-16      0.041719        102742        103134        180933   1.15452e-15
    0.0221797       288.134       288.091      0.103169        17.405      -6.78828             0       20.6228     -0.548906             0       40.5907       8.55784             0       25.1381             0             0      0.219017   6.59461e-16     0.0477511        102741        103134        181648   1.20825e-15
    0.0223473       288.142       288.098      0.101182       16.6764      -6.62492             0       20.3234     -0.537745             0       40.4504       9.37154             0       25.6313             0             0       0.21763    6.8879e-16     0.0537832        102741        103133        182364   1.26199e-15
     0.022515       288.149       288.105     0.0991949       15.9479      -6.46157             0        20.024     -0.526583             0       40.3101       10.1852             0       26.1245             0             0      0.216242   7.18119e-16     0.0598153        102740        103133        183080   1.31573e-15
    0.0226827       288.157       288.111     0.0972079       15.2193      -6.29821             0       19.7246     -0.515421             0       40.1699       10.9989             0       26.6177             0             0      0.214855   7.47448e-16     0.0658474        102739        103132        183795   1.36946e-15
    0.0228504       288.165       288.118     0.0952209       14.4907      -6.13486             0       19.4253      -0.50426             0       40.0296       11.8126             0       27.1109             0             0      0.213468   7.76777e-16     0.0718796        102738        103131        184511    1.4232e-15
     0.023018       288.172       288.125     0.0934607       13.7992      -5.98742             0       19.1142     -0.496889             0        39.858       12.5948             0       27.6285             0             0      0.212128   8.06131e-16     0.0777044        102738        103131        185235   1.47698e-15
    0.0231857       288.178       288.135     0.0935839       13.4155      -5.97215             0        18.706     -0.521007             0       39.4254       13.1145             0        28.349             0             0      0.211184   8.35689e-16     0.0818074        102737        103130        186027   1.53114e-15
    0.0233534       288.184       288.144      0.093707       13.0318      -5.95688             0       18.2978     -0.545124             0       38.9928       13.6343             0       29.0694             0             0      0.210241   8.65248e-16     0.0859103        102735        103129        186819    1.5853e-15
     0.023521        288.19       288.154     0.0938301        12.648      -5.94161             0       17.8896     -0.569242             0       38.5602       14.1541             0       29.7899             0             0      0.209297   8.94806e-16     0.0900133        102734        103129        187611   1.63945e-15
    0.0236887       288.196       288.164     0.0939532       12.2643      -5.92634             0       17.4814     -0.593359             0       38.1276       14.6738             0       30.5103             0             0      0.208353   9.24365e-16     0.0941163        102733        103128        188403   1.69361e-15
    0.0238564       288.202       288.173     0.0940763       11.8805      -5.91107             0       17.0732     -0.617476             0        37.695       15.1936             0       31.2308             0             0       0.20741   9.53924e-16     0.0982193        102732        103128        189195   1.74777e-15
     0.024024       288.207       288.183     0.0943926       11.5214      -5.91316             0       16.6665      -0.64772             0       37.3078       15.6608             0       31.9853             0             0      0.206533     9.798e-16      0.102033        102731        103127        190008   1.79518e-15
    0.0241917       288.204       288.193     0.0958635       11.3096      -6.01904             0       16.2691     -0.714596             0       37.1925       15.8141             0       32.9436             0             0      0.206054   9.83656e-16      0.104114        102730        103126        190939   1.80224e-15
    0.0243594       288.201       288.203     0.0973344       11.0977      -6.12492             0       15.8716     -0.781472             0       37.0771       15.9673             0       33.9019             0             0      0.205575   9.87512e-16      0.106195        102729        103126        191870   1.80931e-15
     0.024527       288.198       288.213     0.0988053       10.8859      -6.23079             0       15.4742     -0.848348             0       36.9618       16.1206             0       34.8601             0             0      0.205097   9.91368e-16      0.108276        102728        103125        192801   1.81637e-15
    0.0246947       288.195       288.224      0.100276       10.6741      -6.33667             0       15.0767     -0.915224             0       36.8465       16.2738             0       35.8184             0             0      0.204618   9.95224e-16      0.110357        102728        103124        193732   1.82344e-15
    0.0248624       288.192       288.234      0.101747       10.4622      -6.44255             0       14.6793       -0.9821             0       36.7311        16.427             0       36.7767             0             0      0.204139    9.9908e-16      0.112438        102727        103123        194664    1.8305e-15
      0.02503       288.189       288.244      0.103225       10.2239      -6.54424             0       14.3017      -1.05507             0       36.6263       16.5576             0       37.7739             0             0      0.203698   1.00187e-15      0.114359        102726        103123        195627   1.83562e-15
    0.0251977       288.184       288.252      0.104734       9.86417      -6.62673             0       14.0152      -1.15598             0       36.5698       16.5841             0       38.9493             0             0      0.203425   9.99779e-16      0.115546        102725        103121        196736   1.83178e-15
    0.0253654       288.179        288.26      0.106243       9.50445      -6.70922             0       13.7286      -1.25689             0       36.5133       16.6107             0       40.1248             0             0      0.203151   9.97687e-16      0.116733        102723        103120        197846   1.82795e-15
     0.025533       288.175       288.268      0.107753       9.14473      -6.79171             0       13.4421       -1.3578             0       36.4568       16.6372             0       41.3003             0             0      0.202878   9.95595e-16       0.11792        102722        103119        198956   1.82412e-15
    0.0257007        288.17       288.276      0.109262       8.78501       -6.8742             0       13.1556      -1.45871             0       36.4003       16.6637             0       42.4758             0             0      0.202605   9.93502e-16      0.119107        102721        103118        200065   1.82028e-15
    0.0258684       288.165       288.284      0.110771       8.42529       -6.9567             0        12.869      -1.55962             0       36.3438       16.6903             0       43.6512             0             0      0.202332    9.9141e-16      0.120294        102720        103117        201175   1.81645e-15
     0.026036       288.162       288.291      0.112133       8.06515      -7.04146             0       12.5965      -1.66405             0        36.172       16.7058             0       44.8641             0             0      0.202072   9.89623e-16      0.121425        102718        103116        202328   1.81317e-15
    0.0262037       288.164       288.295      0.112958       7.70343      -7.13454             0       12.3753      -1.78134             0       35.5786        16.681             0       46.2134             0             0      0.201859   9.88949e-16      0.122352        102717        103114        203641   1.81194e-15
    0.0263714       288.167       288.298      0.113782       7.34172      -7.22761             0       12.1542      -1.89864             0       34.9852       16.6562             0       47.5627             0             0      0.201646   9.88275e-16      0.123279        102715        103113        204953    1.8107e-15
     0.026539       288.169       288.302      0.114607       6.98001      -7.32069             0        11.933      -2.01594             0       34.3918       16.6315             0       48.9121             0             0      0.201433   9.87601e-16      0.124206        102713        103111        206266   1.80947e-15
    0.0267067       288.172       288.306      0.115432        6.6183      -7.41377             0       11.7118      -2.13323             0       33.7984       16.6067             0       50.2614             0             0       0.20122   9.86927e-16      0.125132        102711        103110        207579   1.80823e-15
    0.0268744       288.174       288.309      0.116256       6.25659      -7.50684             0       11.4906      -2.25053             0        33.205       16.5819             0       51.6107             0             0      0.201006   9.86254e-16      0.126059        102709        103108        208892     1.807e-15
     0.027042       288.178       288.312      0.117016        5.9148      -7.60882             0       11.2624      -2.36829             0       32.5605       16.5186             0       52.9944             0             0       0.20078    9.8657e-16      0.127044        102707        103106        210233   1.80758e-15
    0.0272097       288.186       288.313      0.117584       5.63257      -7.73737             0       11.0132      -2.48744             0       31.7631       16.3401             0       54.4808             0             0      0.200513   9.89845e-16      0.128203        102705        103105        211657   1.81358e-15
    0.0273774       288.195       288.314      0.118152       5.35034      -7.86592             0        10.764      -2.60658             0       30.9656       16.1615             0       55.9671             0             0      0.200247   9.93121e-16      0.129362        102703        103103        213081   1.81958e-15
     0.027545       288.203       288.315      0.118719       5.06811      -7.99448             0       10.5149      -2.72573             0       30.1682        15.983             0       57.4535             0             0       0.19998   9.96397e-16       0.13052        102700        103101        214505   1.82558e-15
    0.0277127       288.212       288.317      0.119287       4.78587      -8.12303             0       10.2657      -2.84488             0       29.3708       15.8044             0       58.9398             0             0      0.199714   9.99672e-16      0.131679        102698        103099        215930   1.83159e-15
    0.0278804        288.22       288.318      0.119854       4.50364      -8.25158             0       10.0165      -2.96402             0       28.5733       15.6259             0       60.4261             0             0      0.199447   1.00295e-15      0.132838        102695        103097        217354   1.83759e-15
     0.028048       288.228       288.319       0.12041       4.23586      -8.38351             0       9.76087      -3.08453             0       27.7554       15.3966             0        61.905             0             0      0.199178   1.00717e-15      0.134008        102693        103096        218752   1.84532e-15
    0.0282157       288.236       288.319      0.120936       4.00405      -8.52383             0       9.48906      -3.20844             0       26.8863       15.0412             0       63.3652             0             0      0.198902   1.01373e-15      0.135209        102690        103094        220084   1.85735e-15
    0.0283834       288.244        288.32      0.121462       3.77224      -8.66415             0       9.21726      -3.33234             0       26.0171       14.6857             0       64.8254             0             0      0.198626    1.0203e-15      0.136409        102687        103092        221417   1.86938e-15
    0.0285511       288.252       288.321      0.121988       3.54043      -8.80447             0       8.94546      -3.45625             0        25.148       14.3302             0       66.2856             0             0       0.19835   1.02686e-15       0.13761        102685        103090        222749   1.88141e-15
    0.0287187        288.26       288.322      0.122514       3.30863      -8.94479             0       8.67366      -3.58015             0       24.2789       13.9747             0       67.7458             0             0      0.198074   1.03343e-15       0.13881        102682        103088        224082   1.89344e-15
    0.0288864       288.268       288.323       0.12304       3.07682      -9.08511             0       8.40185      -3.70405             0       23.4098       13.6192             0       69.2061             0             0      0.197797      1.04e-15      0.140011        102679        103086        225414   1.90547e-15
    0.0290541       288.275       288.324      0.123455       2.86271      -9.23017             0       8.12652      -3.82868             0       22.5696        13.201             0       70.5846             0             0      0.197552   1.04651e-15      0.141079        102676        103084        226650    1.9174e-15
    0.0292217       288.279       288.325      0.123639       2.68581       -9.3852             0       7.84375      -3.95483             0       21.7903       12.6509             0       71.7914             0             0      0.197371   1.05292e-15      0.141867        102673        103082        227682   1.92914e-15
    0.0293894       288.283       288.325      0.123822       2.50891      -9.54022             0       7.56099      -4.08098             0        21.011       12.1008             0       72.9983             0             0      0.197189   1.05932e-15      0.142656        102670        103081        228715   1.94087e-15
    0.0295571       288.286       288.326      0.124006       2.33201      -9.69525             0       7.27823      -4.20712             0       20.2316       11.5507             0       74.2051             0             0      0.197008   1.06572e-15      0.143444        102667        103079        229747    1.9526e-15
    0.0297247        288.29       288.327       0.12419        2.1551      -9.85027             0       6.99546      -4.33327             0       19.4523       11.0007             0       75.4119             0             0      0.196827   1.07213e-15      0.144232        102664        103077        230780   1.96434e-15
    0.0298924       288.294       288.327      0.124373        1.9782      -10.0053             0        6.7127      -4.45942             0        18.673       10.4506             0       76.6188             0             0      0.196645   1.07853e-15      0.145021        102661        103075        231812   1.97607e-15
    0.0300601       288.296       288.328      0.124453       1.82066      -10.1634             0       6.42635      -4.58413             0       18.0609       9.83033             0        77.682             0             0      0.196516   1.08411e-15      0.145581        102657        103074        232689   1.98628e-15
    0.0302277       288.296       288.329      0.124348        1.6978       -10.327             0       6.13357      -4.70626             0       17.7484       9.08438             0       78.4881             0             0      0.196481   1.08819e-15      0.145734        102654        103073        233286   1.99377e-15
    0.0303954       288.296       288.329      0.124243       1.57494      -10.4906             0        5.8408      -4.82839             0       17.4359       8.33844             0       79.2941             0             0      0.196446   1.09228e-15      0.145886        102651        103071        233884   2.00126e-15
    0.0305631       288.295        288.33      0.124139       1.45208      -10.6542             0       5.54802      -4.95052             0       17.1234        7.5925             0       80.1001             0             0      0.196411   1.09636e-15      0.146038        102647        103070        234481   2.00874e-15
    0.0307307       288.295        288.33      0.124034       1.32922      -10.8178             0       5.25525      -5.07266             0       16.8109       6.84655             0       80.9061             0             0      0.196376   1.10045e-15       0.14619        102644        103069        235078   2.01623e-15
    0.0308984       288.295       288.331      0.123929       1.20636      -10.9814             0       4.96247      -5.19479             0       16.4984       6.10061             0       81.7121             0             0      0.196341   1.10454e-15      0.146343        102641        103067        235676   2.02371e-15
    0.0310661       288.293       288.332      0.123824         1.092      -11.1452             0       4.67021      -5.31335             0       16.3714        5.3425             0       82.3373             0             0      0.196356    1.1087e-15      0.146278        102637        103066        236109   2.03134e-15
    0.0312337        288.29       288.332      0.123721      0.990722      -11.3092             0       4.37872      -5.42643             0       16.5295       4.56569             0       82.6845             0             0      0.196448   1.11297e-15      0.145878        102633        103065        236290   2.03917e-15
    0.0314014       288.287       288.332      0.123617      0.889443      -11.4733             0       4.08724       -5.5395             0       16.6877       3.78887             0       83.0318             0             0       0.19654   1.11725e-15      0.145479        102630        103064        236471   2.04701e-15
    0.0315691       288.284       288.333      0.123513      0.788164      -11.6374             0       3.79575      -5.65258             0       16.8458       3.01206             0        83.379             0             0      0.196632   1.12153e-15       0.14508        102626        103063        236651   2.05484e-15
    0.0317367       288.281       288.333       0.12341      0.686885      -11.8015             0       3.50427      -5.76565             0       17.0039       2.23525             0       83.7262             0             0      0.196723    1.1258e-15       0.14468        102622        103063        236832   2.06268e-15
    0.0319044       288.278       288.334      0.123306      0.585606      -11.9655             0       3.21278      -5.87873             0       17.1621       1.45843             0       84.0734             0             0      0.196815   1.13008e-15      0.144281        102619        103062        237013   2.07051e-15
    0.0320721       288.274       288.334      0.123197      0.495178      -12.1257             0       2.92896      -5.98766             0       17.4056      0.750024             0       84.2412             0             0      0.196957   1.13444e-15      0.143665        102615        103061        237061    2.0785e-15
    0.0322397       288.269       288.334      0.123082      0.419143      -12.2806             0       2.65529      -6.09108             0       17.7623       0.13235             0       84.1711             0             0      0.197165    1.1389e-15      0.142761        102611        103060        236934   2.08668e-15
    0.0324074       288.264       288.334      0.122967      0.343108      -12.4355             0       2.38162      -6.19451             0        18.119     -0.485324             0        84.101             0             0      0.197373   1.14337e-15      0.141858        102608        103060        236807   2.09486e-15
    0.0325751       288.259       288.334      0.122852      0.267073      -12.5904             0       2.10796      -6.29794             0       18.4757        -1.103             0       84.0309             0             0      0.197581   1.14783e-15      0.140954        102604        103059        236680   2.10305e-15
    0.0327427       288.255       288.334      0.122737      0.191038      -12.7453             0       1.83429      -6.40137             0       18.8324      -1.72067             0       83.9608             0             0      0.197788    1.1523e-15       0.14005        102600        103059        236552   2.11123e-15
    0.0329104        288.25       288.334      0.122621      0.115003      -12.9002             0       1.56062       -6.5048             0       19.1892      -2.33835             0       83.8907             0             0      0.197996   1.15677e-15      0.139147        102597        103058        236425   2.11941e-15
    0.0330781       288.245       288.334      0.122523     0.0524759      -13.0437             0       1.29912      -6.60277             0       19.5324      -2.82667             0       83.6645             0             0      0.198259   1.16078e-15      0.138006        102593        103058        236225   2.12676e-15
    0.0332457       288.239       288.333      0.122444    0.00544848      -13.1741             0       1.05156      -6.69448             0       19.8603      -3.16658             0       83.2592             0             0      0.198583   1.16426e-15      0.136594        102589        103058        235943   2.13314e-15
    0.0334134       288.233       288.333      0.122365    -0.0415789      -13.3044             0      0.804006      -6.78619             0       20.1882      -3.50648             0       82.8538             0             0      0.198908   1.16775e-15      0.135182        102586        103058        235661   2.13953e-15
    0.0335811       288.228       288.333      0.122286    -0.0886064      -13.4348             0      0.556451       -6.8779             0       20.5161      -3.84639             0       82.4484             0             0      0.199233   1.17123e-15      0.133771        102582        103058        235378   2.14592e-15
    0.0337487       288.222       288.332      0.122207     -0.135634      -13.5651             0      0.308896      -6.96961             0        20.844      -4.18629             0        82.043             0             0      0.199557   1.17472e-15      0.132359        102579        103057        235096    2.1523e-15
    0.0339164       288.217       288.332      0.122128     -0.182661      -13.6955             0     0.0613407      -7.06131             0       21.1719       -4.5262             0       81.6377             0             0      0.199882    1.1782e-15      0.130947        102575        103057        234813   2.15869e-15
    0.0340841       288.212       288.331      0.122075     -0.211302      -13.8045             0     -0.172847      -7.14529             0       21.4288      -4.71066             0       81.1032             0             0      0.200207   1.18112e-15      0.129535        102572        103057        234509   2.16404e-15
    0.0342518       288.208       288.331      0.122047     -0.221664      -13.8923             0     -0.393746      -7.22159             0       21.6152       -4.7406             0       80.4405             0             0      0.200532   1.18348e-15      0.128123        102570        103058        234183   2.16836e-15
    0.0344194       288.204        288.33      0.122019     -0.232027      -13.9801             0     -0.614645      -7.29789             0       21.8015      -4.77054             0       79.7777             0             0      0.200857   1.18584e-15      0.126711        102567        103058        233857   2.17267e-15
    0.0345871         288.2        288.33      0.121992      -0.24239      -14.0679             0     -0.835544      -7.37419             0       21.9879      -4.80048             0        79.115             0             0      0.201181   1.18819e-15      0.125299        102564        103058        233532   2.17699e-15
    0.0347548       288.197       288.329      0.121964     -0.252753      -14.1558             0      -1.05644      -7.45048             0       22.1742      -4.83042             0       78.4523             0             0      0.201506   1.19055e-15      0.123886        102561        103058        233206   2.18131e-15
    0.0349224       288.193       288.329      0.121936     -0.263115      -14.2436             0      -1.27734      -7.52678             0       22.3606      -4.86036             0       77.7895             0             0      0.201831   1.19291e-15      0.122474        102559        103058        232880   2.18563e-15
    0.0350901       288.191       288.328      0.121973     -0.257798      -14.2984             0      -1.48613      -7.59266             0       22.4729        -4.756             0       77.0094             0             0      0.202111    1.1946e-15      0.121255        102557        103059        232568   2.18874e-15
    0.0352578       288.191       288.328      0.122065     -0.238979      -14.3247             0      -1.68448      -7.64958             0       22.5215      -4.53599             0       76.1282             0             0      0.202354   1.19573e-15        0.1202        102555        103059        232269    2.1908e-15