#           y             T         TMean   TPrime2Mean           U_x           U_y           U_z       UMean_x       UMean_y       UMean_z UPrime2Mea... UPrime2Mea... UPrime2Mea... UPrime2Mea... UPrime2Mea... UPrime2Mea...            O2           H2O          C3H8             p         pMean   pPrime2Mean           CO2
         0.04       288.161       288.385      0.111439       1.37049      -9.79072             0      -5.21313      -7.54672             0       20.9122       6.83066             0       37.8068             0             0      0.208041   1.23155e-15     0.0954724        102565        103102        225503   2.25642e-15
     0.039975       288.161       288.384      0.111575       1.36918      -9.82057             0      -5.20669      -7.55413             0       20.9451       6.73133             0       37.9739             0             0      0.208013   1.23171e-15     0.0955966        102564        103102        225501   2.25672e-15
    0.0399499       288.161       288.384      0.111711       1.36786      -9.85042             0      -5.20025      -7.56153             0       20.9781         6.632             0        38.141             0             0      0.207984   1.23187e-15     0.0957208        102564        103102        225498   2.25702e-15
    0.0399249       288.161       288.384      0.111847       1.36654      -9.88027             0      -5.19382      -7.56894             0        21.011       6.53266             0       38.3081             0             0      0.207956   1.23203e-15      0.095845        102564        103101        225495   2.25732e-15
    0.0398999       288.161       288.383      0.111982       1.36522      -9.91011             0      -5.18738      -7.57635             0       21.0439       6.43333             0       38.4752             0             0      0.207927    1.2322e-15     0.0959692        102564        103101        225492   2.25761e-15
    0.0398749       288.161       288.383      0.112118       1.36391      -9.93996             0      -5.18094      -7.58375             0       21.0768         6.334             0       38.6424             0             0      0.207899   1.23236e-15     0.0960934        102564        103101        225490   2.25791e-15
    0.0398498        288.16       288.383      0.112254       1.36259      -9.96981             0      -5.17451      -7.59116             0       21.1098       6.23467             0       38.8095             0             0       0.20787   1.23252e-15     0.0962175        102563        103101        225487   2.25821e-15
    0.0398248        288.16       288.382       0.11239       1.36127      -9.99965             0      -5.16807      -7.59856             0       21.1427       6.13534             0       38.9766             0             0      0.207841   1.23268e-15     0.0963417        102563        103100        225484    2.2585e-15
    0.0397998        288.16       288.382      0.112526       1.35996      -10.0295             0      -5.16163      -7.60597             0       21.1756       6.03601             0       39.1437             0             0      0.207813   1.23284e-15     0.0964659        102563        103100        225482    2.2588e-15
    0.0397748        288.16       288.382      0.112662       1.35864      -10.0593             0       -5.1552      -7.61337             0       21.2085       5.93668             0       39.3108             0             0      0.207784   1.23301e-15     0.0965901        102563        103100        225479    2.2591e-15
    0.0397497        288.16       288.381      0.112797       1.35732      -10.0892             0      -5.14876      -7.62078             0       21.2415       5.83735             0       39.4779             0             0      0.207756   1.23317e-15     0.0967143        102563        103100        225476   2.25939e-15
    0.0397247        288.16       288.381      0.112933       1.35601       -10.119             0      -5.14233      -7.62818             0       21.2744       5.73802             0        39.645             0             0      0.207727   1.23333e-15     0.0968385        102562        103100        225474   2.25969e-15
    0.0396997        288.16       288.381      0.113069       1.35469      -10.1489             0      -5.13589      -7.63559             0       21.3073       5.63869             0       39.8121             0             0      0.207699   1.23349e-15     0.0969627        102562        103099        225471   2.25999e-15
    0.0396747        288.16        288.38      0.113205       1.35337      -10.1787             0      -5.12945      -7.64299             0       21.3403       5.53936             0       39.9792             0             0       0.20767   1.23365e-15     0.0970869        102562        103099        225468   2.26028e-15
    0.0396496        288.16        288.38      0.113341       1.35205      -10.2086             0      -5.12302       -7.6504             0       21.3732       5.44003             0       40.1463             0             0      0.207641   1.23382e-15      0.097211        102562        103099        225465   2.26058e-15
    0.0396246        288.16        288.38      0.113477       1.35074      -10.2384             0      -5.11658      -7.65781             0       21.4061        5.3407             0       40.3134             0             0      0.207613   1.23398e-15     0.0973352        102562        103099        225463   2.26088e-15
    0.0395996       288.159       288.379      0.113613       1.34942      -10.2683             0      -5.11014      -7.66521             0        21.439       5.24137             0       40.4805             0             0      0.207584   1.23414e-15     0.0974594        102561        103098        225460   2.26117e-15
    0.0395746       288.159       288.379      0.113748        1.3481      -10.2981             0      -5.10371      -7.67262             0        21.472       5.14204             0       40.6477             0             0      0.207556    1.2343e-15     0.0975836        102561        103098        225457   2.26147e-15
    0.0395495       288.159       288.379      0.113884       1.34679       -10.328             0      -5.09727      -7.68002             0       21.5049       5.04271             0       40.8148             0             0      0.207527   1.23446e-15     0.0977078        102561        103098        225455   2.26177e-15
    0.0395245       288.159       288.378       0.11402       1.34547      -10.3578             0      -5.09084      -7.68743             0       21.5378       4.94338             0       40.9819             0             0      0.207499   1.23463e-15      0.097832        102561        103098        225452   2.26207e-15
    0.0394995       288.159       288.378      0.114156       1.34415      -10.3877             0       -5.0844      -7.69483             0       21.5707       4.84404             0        41.149             0             0       0.20747   1.23479e-15     0.0979562        102561        103098        225449   2.26236e-15
    0.0394745       288.159       288.378      0.114292       1.34284      -10.4175             0      -5.07796      -7.70224             0       21.6037       4.74471             0       41.3161             0             0      0.207442   1.23495e-15     0.0980803        102560        103097        225447   2.26266e-15
    0.0394494       288.159       288.377      0.114428       1.34152      -10.4474             0      -5.07153      -7.70964             0       21.6366       4.64538             0       41.4832             0             0      0.207413   1.23511e-15     0.0982045        102560        103097        225444   2.26296e-15
    0.0394244       288.159       288.377      0.114563        1.3402      -10.4772             0      -5.06509      -7.71705             0       21.6695       4.54605             0       41.6503             0             0      0.207384   1.23527e-15     0.0983287        102560        103097        225441   2.26325e-15
    0.0393994       288.159       288.377      0.114699       1.33888      -10.5071             0      -5.05865      -7.72445             0       21.7025       4.44672             0       41.8174             0             0      0.207356   1.23544e-15     0.0984529        102560        103097        225438   2.26355e-15
    0.0393744       288.158       288.376      0.114835       1.33757      -10.5369             0      -5.05222      -7.73186             0       21.7354       4.34739             0       41.9845             0             0      0.207327    1.2356e-15     0.0985771        102560        103096        225436   2.26385e-15
    0.0393493       288.158       288.376      0.114971       1.33625      -10.5667             0      -5.04578      -7.73926             0       21.7683       4.24806             0       42.1516             0             0      0.207299   1.23576e-15     0.0987013        102559        103096        225433   2.26414e-15
    0.0393243       288.158       288.376      0.115107       1.33493      -10.5966             0      -5.03934      -7.74667             0       21.8012       4.14873             0       42.3187             0             0       0.20727   1.23592e-15     0.0988255        102559        103096        225430   2.26444e-15
    0.0392993       288.158       288.375      0.115243       1.33362      -10.6264             0      -5.03291      -7.75408             0       21.8342        4.0494             0       42.4858             0             0      0.207242   1.23608e-15     0.0989496        102559        103096        225428   2.26474e-15
    0.0392743       288.158       288.375      0.115378        1.3323      -10.6563             0      -5.02647      -7.76148             0       21.8671       3.95007             0       42.6529             0             0      0.207213   1.23625e-15     0.0990738        102559        103096        225425   2.26503e-15
    0.0392492       288.158       288.375      0.115514       1.33098      -10.6861             0      -5.02004      -7.76889             0          21.9       3.85074             0       42.8201             0             0      0.207184   1.23641e-15      0.099198        102559        103095        225422   2.26533e-15
    0.0392242       288.158       288.374       0.11565       1.32967       -10.716             0       -5.0136      -7.77629             0       21.9329       3.75141             0       42.9872             0             0      0.207156   1.23657e-15     0.0993222        102558        103095        225420   2.26563e-15
    0.0391992       288.158       288.374      0.115786       1.32835      -10.7458             0      -5.00716       -7.7837             0       21.9659       3.65208             0       43.1543             0             0      0.207127   1.23673e-15     0.0994464        102558        103095        225417   2.26592e-15
    0.0391742       288.158       288.374      0.115922       1.32703      -10.7757             0      -5.00073       -7.7911             0       21.9988       3.55275             0       43.3214             0             0      0.207099   1.23689e-15     0.0995706        102558        103095        225414   2.26622e-15
    0.0391491       288.158       288.374      0.116058       1.32571      -10.8055             0      -4.99429      -7.79851             0       22.0317       3.45342             0       43.4885             0             0       0.20707   1.23706e-15     0.0996948        102558        103094        225412   2.26652e-15
    0.0391241       288.157       288.373      0.116193        1.3244      -10.8354             0      -4.98785      -7.80591             0       22.0647       3.35409             0       43.6556             0             0      0.207042   1.23722e-15     0.0998189        102558        103094        225409   2.26682e-15
    0.0390991       288.157       288.373      0.116329       1.32308      -10.8652             0      -4.98142      -7.81332             0       22.0976       3.25475             0       43.8227             0             0      0.207013   1.23738e-15     0.0999431        102557        103094        225406   2.26711e-15
    0.0390741       288.157       288.373      0.116465       1.32176      -10.8951             0      -4.97498      -7.82072             0       22.1305       3.15542             0       43.9898             0             0      0.206985   1.23754e-15      0.100067        102557        103094        225403   2.26741e-15
     0.039049       288.157       288.372      0.116601       1.32045      -10.9249             0      -4.96855      -7.82813             0       22.1634       3.05609             0       44.1569             0             0      0.206956    1.2377e-15      0.100192        102557        103094        225401   2.26771e-15
     0.039024       288.157       288.372      0.116737       1.31913      -10.9548             0      -4.96211      -7.83553             0       22.1964       2.95676             0        44.324             0             0      0.206927   1.23787e-15      0.100316        102557        103093        225398     2.268e-15
     0.038999       288.157       288.372      0.116871       1.31759      -10.9845             0      -4.95544       -7.8428             0       22.2288       2.85805             0       44.4916             0             0      0.206899   1.23802e-15      0.100437        102557        103093        225396   2.26829e-15
     0.038974       288.157       288.371      0.116968       1.31078       -11.012             0       -4.9432      -7.84678             0       22.2502       2.77416             0       44.6704             0             0      0.206888   1.23806e-15      0.100488        102556        103093        225405   2.26835e-15
    0.0389489       288.157       288.371      0.117065       1.30398      -11.0395             0      -4.93095      -7.85075             0       22.2716       2.69027             0       44.8492             0             0      0.206876   1.23809e-15      0.100538        102556        103093        225414   2.26841e-15
    0.0389239       288.157       288.371      0.117161       1.29717      -11.0671             0      -4.91871      -7.85472             0        22.293       2.60638             0       45.0281             0             0      0.206865   1.23812e-15      0.100589        102556        103093        225423   2.26847e-15
    0.0388989       288.157        288.37      0.117258       1.29036      -11.0946             0      -4.90646       -7.8587             0       22.3144       2.52249             0       45.2069             0             0      0.206853   1.23816e-15      0.100639        102556        103092        225432   2.26853e-15
    0.0388739       288.158        288.37      0.117355       1.28355      -11.1221             0      -4.89422      -7.86267             0       22.3358        2.4386             0       45.3857             0             0      0.206841   1.23819e-15       0.10069        102556        103092        225441   2.26859e-15
    0.0388488       288.158        288.37      0.117452       1.27674      -11.1496             0      -4.88198      -7.86664             0       22.3572       2.35471             0       45.5645             0             0       0.20683   1.23822e-15      0.100741        102556        103092        225450   2.26865e-15
    0.0388238       288.158       288.369      0.117549       1.26993      -11.1771             0      -4.86973      -7.87062             0       22.3785       2.27082             0       45.7434             0             0      0.206818   1.23826e-15      0.100791        102555        103092        225459   2.26871e-15
    0.0387988       288.158       288.369      0.117645       1.26312      -11.2046             0      -4.85749      -7.87459             0       22.3999       2.18693             0       45.9222             0             0      0.206806   1.23829e-15      0.100842        102555        103091        225468   2.26877e-15
    0.0387738       288.158       288.368      0.117742       1.25631      -11.2322             0      -4.84525      -7.87856             0       22.4213       2.10304             0        46.101             0             0      0.206795   1.23832e-15      0.100893        102555        103091        225477   2.26884e-15
    0.0387487       288.158       288.368      0.117839       1.24951      -11.2597             0        -4.833      -7.88254             0       22.4427       2.01914             0       46.2798             0             0      0.206783   1.23835e-15      0.100943        102555        103091        225486    2.2689e-15
    0.0387237       288.158       288.368      0.117936        1.2427      -11.2872             0      -4.82076      -7.88651             0       22.4641       1.93525             0       46.4586             0             0      0.206771   1.23839e-15      0.100994        102555        103091        225495   2.26896e-15
    0.0386987       288.158       288.367      0.118033       1.23589      -11.3147             0      -4.80851      -7.89048             0       22.4855       1.85136             0       46.6375             0             0       0.20676   1.23842e-15      0.101045        102555        103091        225504   2.26902e-15
    0.0386737       288.158       288.367      0.118129       1.22908      -11.3422             0      -4.79627      -7.89446             0       22.5069       1.76747             0       46.8163             0             0      0.206748   1.23845e-15      0.101095        102554        103090        225513   2.26908e-15
    0.0386486       288.159       288.367      0.118226       1.22227      -11.3697             0      -4.78403      -7.89843             0       22.5283       1.68358             0       46.9951             0             0      0.206736   1.23849e-15      0.101146        102554        103090        225522   2.26914e-15
    0.0386236       288.159       288.366      0.118323       1.21546      -11.3972             0      -4.77178       -7.9024             0       22.5497       1.59969             0       47.1739             0             0      0.206725   1.23852e-15      0.101197        102554        103090        225531    2.2692e-15
    0.0385986       288.159       288.366       0.11842       1.20865      -11.4248             0      -4.75954      -7.90638             0        22.571        1.5158             0       47.3528             0             0      0.206713   1.23855e-15      0.101247        102554        103090        225540   2.26926e-15
    0.0385736       288.159       288.366      0.118517       1.20184      -11.4523             0      -4.74729      -7.91035             0       22.5924       1.43191             0       47.5316             0             0      0.206701   1.23859e-15      0.101298        102554        103090        225549   2.26932e-15
    0.0385485       288.159       288.365      0.118613       1.19503      -11.4798             0      -4.73505      -7.91433             0       22.6138       1.34802             0       47.7104             0             0       0.20669   1.23862e-15      0.101348        102553        103089        225558   2.26938e-15
    0.0385235       288.159       288.365       0.11871       1.18823      -11.5073             0      -4.72281       -7.9183             0       22.6352       1.26413             0       47.8892             0             0      0.206678   1.23865e-15      0.101399        102553        103089        225567   2.26944e-15
    0.0384985       288.159       288.365      0.118807       1.18142      -11.5348             0      -4.71056      -7.92227             0       22.6566       1.18024             0        48.068             0             0      0.206667   1.23868e-15       0.10145        102553        103089        225576    2.2695e-15
    0.0384735       288.159       288.364      0.118904       1.17461      -11.5623             0      -4.69832      -7.92625             0        22.678       1.09635             0       48.2469             0             0      0.206655   1.23872e-15        0.1015        102553        103089        225585   2.26956e-15
    0.0384484       288.159       288.364         0.119        1.1678      -11.5899             0      -4.68608      -7.93022             0       22.6994       1.01246             0       48.4257             0             0      0.206643   1.23875e-15      0.101551        102553        103089        225594   2.26962e-15
    0.0384234        288.16       288.364      0.119097       1.16099      -11.6174             0      -4.67383      -7.93419             0       22.7208      0.928568             0       48.6045             0             0      0.206632   1.23878e-15      0.101602        102553        103088        225603   2.26968e-15
    0.0383984        288.16       288.363      0.119194       1.15418      -11.6449             0      -4.66159      -7.93817             0       22.7422      0.844677             0       48.7833             0             0       0.20662   1.23882e-15      0.101652        102552        103088        225612   2.26974e-15
    0.0383734        288.16       288.363      0.119291       1.14737      -11.6724             0      -4.64934      -7.94214             0       22.7635      0.760787             0       48.9622             0             0      0.206608   1.23885e-15      0.101703        102552        103088        225621    2.2698e-15
    0.0383483        288.16       288.363      0.119388       1.14056      -11.6999             0       -4.6371      -7.94611             0       22.7849      0.676896             0        49.141             0             0      0.206597   1.23888e-15      0.101754        102552        103088        225630   2.26986e-15
    0.0383233        288.16       288.362      0.119484       1.13376      -11.7274             0      -4.62486      -7.95009             0       22.8063      0.593005             0       49.3198             0             0      0.206585   1.23892e-15      0.101804        102552        103087        225639   2.26993e-15
    0.0382983        288.16       288.362      0.119581       1.12695       -11.755             0      -4.61261      -7.95406             0       22.8277      0.509115             0       49.4986             0             0      0.206573   1.23895e-15      0.101855        102552        103087        225648   2.26999e-15
    0.0382733        288.16       288.362      0.119678       1.12014      -11.7825             0      -4.60037      -7.95803             0       22.8491      0.425224             0       49.6774             0             0      0.206562   1.23898e-15      0.101905        102552        103087        225657   2.27005e-15
    0.0382482        288.16       288.361      0.119775       1.11333        -11.81             0      -4.58812      -7.96201             0       22.8705      0.341334             0       49.8563             0             0       0.20655   1.23902e-15      0.101956        102551        103087        225666   2.27011e-15
    0.0382232        288.16       288.361      0.119872       1.10652      -11.8375             0      -4.57588      -7.96598             0       22.8919      0.257443             0       50.0351             0             0      0.206538   1.23905e-15      0.102007        102551        103087        225675   2.27017e-15
    0.0381982       288.161        288.36      0.119968       1.09971       -11.865             0      -4.56364      -7.96995             0       22.9133      0.173553             0       50.2139             0             0      0.206527   1.23908e-15      0.102057        102551        103086        225684   2.27023e-15
    0.0381732       288.161        288.36      0.120065        1.0929      -11.8925             0      -4.55139      -7.97393             0       22.9347     0.0896623             0       50.3927             0             0      0.206515   1.23911e-15      0.102108        102551        103086        225693   2.27029e-15
    0.0381481       288.161        288.36      0.120162       1.08609        -11.92             0      -4.53915       -7.9779             0        22.956    0.00577174             0       50.5716             0             0      0.206503   1.23915e-15      0.102159        102551        103086        225702   2.27035e-15
    0.0381231       288.161       288.359      0.120259       1.07929      -11.9476             0      -4.52691      -7.98187             0       22.9774    -0.0781188             0       50.7504             0             0      0.206492   1.23918e-15      0.102209        102550        103086        225711   2.27041e-15
    0.0380981       288.161       288.359      0.120356       1.07248      -11.9751             0      -4.51466      -7.98585             0       22.9988     -0.162009             0       50.9292             0             0       0.20648   1.23921e-15       0.10226        102550        103086        225720   2.27047e-15
    0.0380731       288.161       288.359      0.120452       1.06567      -12.0026             0      -4.50242      -7.98982             0       23.0202       -0.2459             0        51.108             0             0      0.206469   1.23925e-15      0.102311        102550        103085        225729   2.27053e-15
     0.038048       288.161       288.358      0.120549       1.05886      -12.0301             0      -4.49017      -7.99379             0       23.0416      -0.32979             0       51.2868             0             0      0.206457   1.23928e-15      0.102361        102550        103085        225738   2.27059e-15
     0.038023       288.161       288.358      0.120646       1.05205      -12.0576             0      -4.47793      -7.99777             0        23.063     -0.413681             0       51.4657             0             0      0.206445   1.23931e-15      0.102412        102550        103085        225747   2.27065e-15
     0.037998       288.161       288.358      0.120739       1.04476      -12.0846             0       -4.4652      -8.00141             0       23.0825     -0.495869             0       51.6448             0             0      0.206434   1.23934e-15       0.10246        102550        103085        225756    2.2707e-15
     0.037973       288.162       288.357      0.120783       1.03198      -12.1058             0      -4.44685      -8.00122             0       23.0797     -0.558482             0       51.8272             0             0      0.206429   1.23927e-15      0.102482        102550        103085        225775   2.27057e-15
    0.0379479       288.162       288.357      0.120827        1.0192       -12.127             0       -4.4285      -8.00103             0       23.0769     -0.621094             0       52.0095             0             0      0.206424    1.2392e-15      0.102504        102549        103084        225794   2.27044e-15
    0.0379229       288.162       288.357      0.120872       1.00642      -12.1481             0      -4.41014      -8.00084             0       23.0742     -0.683707             0       52.1919             0             0      0.206419   1.23913e-15      0.102525        102549        103084        225813   2.27031e-15
    0.0378979       288.162       288.357      0.120916      0.993639      -12.1693             0      -4.39179      -8.00065             0       23.0714      -0.74632             0       52.3743             0             0      0.206414   1.23906e-15      0.102547        102549        103084        225832   2.27019e-15
    0.0378729       288.162       288.356       0.12096      0.980858      -12.1905             0      -4.37344      -8.00046             0       23.0686     -0.808932             0       52.5567             0             0      0.206409   1.23899e-15      0.102569        102549        103084        225851   2.27006e-15
    0.0378478       288.162       288.356      0.121005      0.968076      -12.2116             0      -4.35509      -8.00026             0       23.0659     -0.871545             0       52.7391             0             0      0.206404   1.23892e-15       0.10259        102549        103084        225870   2.26993e-15
    0.0378228       288.162       288.356      0.121049      0.955295      -12.2328             0      -4.33674      -8.00007             0       23.0631     -0.934157             0       52.9215             0             0      0.206399   1.23885e-15      0.102612        102549        103084        225889    2.2698e-15
    0.0377978       288.162       288.356      0.121093      0.942514      -12.2539             0      -4.31839      -7.99988             0       23.0604      -0.99677             0       53.1038             0             0      0.206394   1.23878e-15      0.102634        102549        103083        225908   2.26967e-15
    0.0377728       288.162       288.355      0.121138      0.929733      -12.2751             0      -4.30004      -7.99969             0       23.0576      -1.05938             0       53.2862             0             0      0.206389   1.23871e-15      0.102655        102549        103083        225926   2.26955e-15
    0.0377477       288.162       288.355      0.121182      0.916952      -12.2963             0      -4.28168       -7.9995             0       23.0548        -1.122             0       53.4686             0             0      0.206384   1.23864e-15      0.102677        102549        103083        225945   2.26942e-15
    0.0377227       288.162       288.355      0.121226      0.904171      -12.3174             0      -4.26333      -7.99931             0       23.0521      -1.18461             0        53.651             0             0      0.206379   1.23857e-15      0.102699        102549        103083        225964   2.26929e-15