#           y             T         TMean   TPrime2Mean           U_x           U_y           U_z       UMean_x       UMean_y       UMean_z UPrime2Mea... UPrime2Mea... UPrime2Mea... UPrime2Mea... UPrime2Mea... UPrime2Mea...            O2           H2O          C3H8             p         pMean   pPrime2Mean           CO2
         0.03        288.22       288.558      0.306897       6.86997      -8.27245             0       3.50257       1.05792             0       18.5511     -0.955839             0       54.7277             0             0      0.190523   1.36801e-15       0.17164        102799        103149        267395   2.50645e-15
    0.0301702       288.216       288.556      0.304112       6.72361      -8.21522             0       3.47216       1.09528             0       18.6175     -0.941759             0       54.6465             0             0      0.190519   1.37585e-15      0.171659        102799        103150        266854   2.52081e-15
    0.0303403       288.212       288.554      0.301327       6.57725        -8.158             0       3.44176       1.13265             0       18.6839      -0.92768             0       54.5654             0             0      0.190514   1.38368e-15      0.171677        102799        103150        266313   2.53516e-15
    0.0305105       288.208       288.552      0.298541       6.43088      -8.10077             0       3.41135       1.17002             0       18.7503       -0.9136             0       54.4842             0             0       0.19051   1.39151e-15      0.171696        102799        103150        265772   2.54951e-15
    0.0306807       288.203        288.55      0.295756       6.28452      -8.04354             0       3.38095       1.20739             0       18.8167      -0.89952             0       54.4031             0             0      0.190506   1.39934e-15      0.171715        102799        103151        265231   2.56386e-15
    0.0308509       288.199       288.548      0.292971       6.13815      -7.98631             0       3.35055       1.24476             0       18.8831      -0.88544             0       54.3219             0             0      0.190501   1.40718e-15      0.171734        102799        103151        264690   2.57821e-15
     0.031021       288.195       288.546      0.290307       5.99291      -7.92786             0       3.32244       1.28254             0       18.9727     -0.866617             0       54.2269             0             0      0.190492   1.41499e-15      0.171773        102798        103151        264140   2.59252e-15
    0.0311912       288.191       288.544      0.288511       5.85557      -7.86071             0       3.31061       1.32323             0       19.2262     -0.814142             0       54.0336             0             0      0.190449   1.42265e-15      0.171959        102798        103152        263528   2.60656e-15
    0.0313614       288.186       288.542      0.286715       5.71824      -7.79356             0       3.29879       1.36392             0       19.4797     -0.761666             0       53.8403             0             0      0.190407   1.43031e-15      0.172145        102798        103152        262916   2.62059e-15
    0.0315315       288.182       288.539      0.284918       5.58091      -7.72641             0       3.28696       1.40461             0       19.7332     -0.709191             0        53.647             0             0      0.190364   1.43797e-15      0.172332        102797        103153        262304   2.63462e-15
    0.0317017       288.177       288.537      0.283122       5.44358      -7.65926             0       3.27514       1.44531             0       19.9867     -0.656716             0       53.4536             0             0      0.190321   1.44563e-15      0.172518        102797        103153        261692   2.64866e-15
    0.0318719       288.173       288.534      0.281326       5.30625      -7.59211             0       3.26331         1.486             0       20.2402      -0.60424             0       53.2603             0             0      0.190278   1.45328e-15      0.172704        102797        103154        261080   2.66269e-15
     0.032042       288.169       288.532      0.279834       5.17208      -7.52325             0       3.25504       1.52684             0       20.5461     -0.536796             0       53.0435             0             0      0.190224   1.46069e-15       0.17294        102796        103154        260461   2.67625e-15
    0.0322122       288.165        288.53      0.279269       5.04754       -7.4492             0       3.25761       1.56817             0       21.0118     -0.423733             0       52.7549             0             0      0.190135   1.46731e-15      0.173327        102796        103155        259820   2.68839e-15
    0.0323824       288.162       288.527      0.278704       4.92299      -7.37516             0       3.26018       1.60949             0       21.4775      -0.31067             0       52.4663             0             0      0.190046   1.47394e-15      0.173715        102795        103155        259180   2.70053e-15
    0.0325526       288.159       288.525      0.278138       4.79845      -7.30111             0       3.26275       1.65081             0       21.9431     -0.197607             0       52.1777             0             0      0.189956   1.48057e-15      0.174103        102795        103156        258539   2.71267e-15
    0.0327227       288.156       288.523      0.277573       4.67391      -7.22706             0       3.26532       1.69213             0       22.4088    -0.0845444             0       51.8891             0             0      0.189867   1.48719e-15       0.17449        102794        103156        257899   2.72481e-15
    0.0328929       288.153        288.52      0.277008       4.54937      -7.15301             0       3.26789       1.73346             0       22.8745     0.0285185             0       51.6006             0             0      0.189778   1.49382e-15      0.174878        102794        103157        257258   2.73695e-15
    0.0330631        288.15       288.518      0.276819       4.43021      -7.07746             0       3.27331       1.77429             0       23.4488      0.163396             0        51.284             0             0      0.189684   1.49953e-15      0.175286        102793        103158        256617   2.74742e-15
    0.0332332       288.149       288.515      0.277266       4.32018      -6.99935             0       3.28356        1.8143             0       24.2076      0.335322             0         50.92             0             0      0.189582   1.50369e-15       0.17573        102792        103158        255975   2.75504e-15
    0.0334034       288.147       288.513      0.277713       4.21016      -6.92123             0       3.29381        1.8543             0       24.9665      0.507248             0        50.556             0             0       0.18948   1.50785e-15      0.176174        102792        103159        255332   2.76266e-15
    0.0335736       288.145        288.51       0.27816       4.10013      -6.84312             0       3.30406       1.89431             0       25.7253      0.679174             0        50.192             0             0      0.189378   1.51201e-15      0.176618        102791        103160        254690   2.77028e-15
    0.0337437       288.143       288.508      0.278607        3.9901      -6.76501             0       3.31432       1.93432             0       26.4841      0.851101             0        49.828             0             0      0.189276   1.51617e-15      0.177061        102790        103161        254047    2.7779e-15
    0.0339139       288.142       288.505      0.279054       3.88008      -6.68689             0       3.32457       1.97433             0       27.2429       1.02303             0        49.464             0             0      0.189174   1.52033e-15      0.177505        102790        103161        253405   2.78553e-15
    0.0340841        288.14       288.503      0.279819       3.77812      -6.60888             0        3.3373        2.0126             0       28.1444       1.21864             0       49.0655             0             0      0.189076   1.52408e-15      0.177929        102789        103162        252768    2.7924e-15
    0.0342543       288.139       288.501       0.28091       3.68443      -6.53096             0       3.35256       2.04909             0        29.192       1.43851             0       48.6318             0             0      0.188983   1.52741e-15      0.178333        102788        103163        252138   2.79851e-15
    0.0344244       288.139       288.499      0.282001       3.59073      -6.45304             0       3.36782       2.08558             0       30.2396       1.65838             0       48.1981             0             0       0.18889   1.53075e-15      0.178737        102787        103164        251507   2.80462e-15
    0.0345946       288.138       288.497      0.283092       3.49703      -6.37513             0       3.38308       2.12207             0       31.2871       1.87824             0       47.7645             0             0      0.188798   1.53408e-15      0.179141        102786        103165        250877   2.81073e-15
    0.0347648       288.137       288.495      0.284183       3.40334      -6.29721             0       3.39834       2.15857             0       32.3347       2.09811             0       47.3308             0             0      0.188705   1.53742e-15      0.179545        102786        103166        250246   2.81684e-15
    0.0349349       288.136       288.493      0.285274       3.30964       -6.2193             0        3.4136       2.19506             0       33.3823       2.31798             0       46.8971             0             0      0.188612   1.54075e-15      0.179949        102785        103167        249616   2.82295e-15
    0.0351051       288.136       288.491      0.286279       3.22609      -6.14382             0       3.43238        2.2284             0        34.523       2.54213             0       46.4232             0             0      0.188511   1.54421e-15      0.180387        102784        103168        248997   2.82928e-15
    0.0352753       288.136        288.49       0.28723        3.1488      -6.06987             0       3.45334       2.25979             0       35.7214       2.76893             0       45.9244             0             0      0.188405   1.54775e-15      0.180846        102783        103169        248386   2.83576e-15
    0.0354454       288.137       288.489      0.288182       3.07152      -5.99591             0        3.4743       2.29119             0       36.9198       2.99573             0       45.4256             0             0        0.1883   1.55129e-15      0.181306        102782        103170        247774   2.84224e-15
    0.0356156       288.137       288.487      0.289133       2.99423      -5.92195             0       3.49525       2.32258             0       38.1182       3.22254             0       44.9268             0             0      0.188194   1.55482e-15      0.181765        102781        103171        247163   2.84873e-15
    0.0357858       288.137       288.486      0.290084       2.91695      -5.84799             0       3.51621       2.35397             0       39.3166       3.44934             0       44.4281             0             0      0.188088   1.55836e-15      0.182224        102780        103172        246551   2.85521e-15
     0.035956       288.138       288.485      0.291035       2.83967      -5.77403             0       3.53717       2.38536             0       40.5149       3.67614             0       43.9293             0             0      0.187983    1.5619e-15      0.182684        102779        103173        245940   2.86169e-15
    0.0361261        288.14       288.484      0.291109       2.77396      -5.70407             0       3.56213       2.41212             0       41.7153       3.86457             0       43.3974             0             0      0.187819   1.56802e-15      0.183398        102778        103174        245365   2.87291e-15
    0.0362963       288.142       288.484      0.290876       2.71231      -5.63551             0        3.5885       2.43725             0       42.9163       4.03961             0       42.8539             0             0      0.187634   1.57506e-15        0.1842        102777        103175        244803    2.8858e-15
    0.0364665       288.144       288.483      0.290642       2.65065      -5.56694             0       3.61486       2.46238             0       44.1174       4.21464             0       42.3104             0             0      0.187449   1.58209e-15      0.185003        102777        103176        244241   2.89869e-15
    0.0366366       288.147       288.483      0.290409       2.58899      -5.49838             0       3.64122       2.48752             0       45.3184       4.38968             0       41.7669             0             0      0.187265   1.58912e-15      0.185806        102776        103177        243679   2.91157e-15
    0.0368068       288.149       288.483      0.290176       2.52734      -5.42981             0       3.66758       2.51265             0       46.5195       4.56471             0       41.2234             0             0       0.18708   1.59616e-15      0.186608        102775        103179        243117   2.92446e-15
     0.036977       288.151       288.482      0.289943       2.46568      -5.36125             0       3.69395       2.53779             0       47.7205       4.73975             0         40.68             0             0      0.186895   1.60319e-15      0.187411        102774        103180        242555   2.93734e-15
    0.0371471       288.154       288.483      0.288129       2.41644      -5.29599             0       3.72478       2.55538             0       48.8087       4.87049             0       40.1098             0             0       0.18665   1.61312e-15       0.18848        102773        103181        242050   2.95555e-15
    0.0373173       288.157       288.483      0.286068       2.36915      -5.23124             0       3.75631        2.5718             0       49.8793        4.9943             0       39.5354             0             0      0.186394   1.62351e-15      0.189589        102772        103182        241552   2.97458e-15
    0.0374875        288.16       288.483      0.284006       2.32185       -5.1665             0       3.78784       2.58822             0       50.9499       5.11811             0        38.961             0             0      0.186139    1.6339e-15      0.190699        102771        103184        241055   2.99361e-15
    0.0376577       288.162       288.483      0.281945       2.27456      -5.10175             0       3.81937       2.60464             0       52.0204       5.24193             0       38.3867             0             0      0.185884   1.64429e-15      0.191809        102770        103185        240558   3.01265e-15
    0.0378278       288.165       288.484      0.279884       2.22726      -5.03701             0        3.8509       2.62105             0        53.091       5.36574             0       37.8123             0             0      0.185629   1.65468e-15      0.192919        102769        103186        240061   3.03168e-15
     0.037998       288.168       288.484      0.277823       2.17996      -4.97226             0       3.88243       2.63747             0       54.1615       5.48955             0       37.2379             0             0      0.185373   1.66507e-15      0.194029        102769        103187        239564   3.05071e-15
    0.0381682       288.171       288.484      0.273973       2.14698      -4.90732             0       3.91967       2.64263             0       54.9891       5.62976             0       36.6315             0             0      0.185053   1.67773e-15      0.195424        102768        103189        239149   3.07392e-15
    0.0383383       288.174       288.485      0.270102       2.11416      -4.84237             0       3.95697       2.64766             0       55.8138       5.77016             0       36.0247             0             0      0.184731   1.69042e-15      0.196822        102767        103190        238734   3.09717e-15
    0.0385085       288.176       288.485       0.26623       2.08134      -4.77742             0       3.99427       2.65268             0       56.6385       5.91056             0       35.4178             0             0      0.184409   1.70311e-15       0.19822        102766        103191        238320   3.12042e-15
    0.0386787       288.179       288.485      0.262359       2.04852      -4.71247             0       4.03157        2.6577             0       57.4632       6.05095             0        34.811             0             0      0.184088    1.7158e-15      0.199618        102766        103193        237905   3.14367e-15
    0.0388488       288.182       288.486      0.258488        2.0157      -4.64752             0       4.06887       2.66273             0       58.2879       6.19135             0       34.2042             0             0      0.183766    1.7285e-15      0.201016        102765        103194        237491   3.16693e-15
     0.039019       288.185       288.486      0.254507       1.98467      -4.58209             0       4.10659       2.66642             0       59.0823       6.33879             0       33.5929             0             0      0.183435   1.74142e-15      0.202458        102764        103195        237086   3.19061e-15
    0.0391892       288.188       288.486       0.24965       1.96786      -4.51276             0       4.14764       2.65953             0        59.636       6.54209             0       32.9463             0             0      0.183023    1.7562e-15      0.204246        102764        103197        236762   3.21768e-15
    0.0393594       288.192       288.486      0.244793       1.95106      -4.44344             0       4.18869       2.65263             0       60.1898        6.7454             0       32.2997             0             0      0.182612   1.77098e-15      0.206035        102763        103198        236437   3.24476e-15
    0.0395295       288.195       288.486      0.239936       1.93425      -4.37411             0       4.22974       2.64573             0       60.7436       6.94871             0       31.6531             0             0        0.1822   1.78575e-15      0.207824        102762        103199        236112   3.27184e-15
    0.0396997       288.199       288.485      0.235079       1.91745      -4.30479             0       4.27079       2.63884             0       61.2973       7.15202             0       31.0065             0             0      0.181789   1.80053e-15      0.209613        102762        103201        235787   3.29891e-15
    0.0398699       288.202       288.485      0.230222       1.90064      -4.23546             0       4.31183       2.63194             0       61.8511       7.35533             0       30.3599             0             0      0.181378   1.81531e-15      0.211402        102761        103202        235462   3.32599e-15
      0.04004       288.205       288.485      0.225477       1.88838      -4.16444             0       4.35304       2.62293             0        62.352       7.56579             0       29.7062             0             0      0.180968   1.82985e-15      0.213184        102761        103204        235159   3.35262e-15
    0.0402102       288.207       288.485      0.221097       1.89087      -4.08791             0       4.39474       2.60703             0       62.6814       7.79948             0       29.0294             0             0      0.180563    1.8436e-15      0.214944        102760        103205        234928   3.37782e-15
    0.0403804       288.209       288.484      0.216717       1.89336      -4.01138             0       4.43644       2.59114             0       63.0107       8.03317             0       28.3525             0             0      0.180158   1.85735e-15      0.216705        102760        103206        234697   3.40301e-15
    0.0405506       288.211       288.484      0.212337       1.89586      -3.93485             0       4.47815       2.57524             0         63.34       8.26685             0       27.6756             0             0      0.179753    1.8711e-15      0.218465        102759        103208        234465    3.4282e-15
    0.0407207       288.213       288.483      0.207957       1.89835      -3.85831             0       4.51985       2.55934             0       63.6694       8.50054             0       26.9988             0             0      0.179348   1.88485e-15      0.220226        102759        103209        234234    3.4534e-15
    0.0408909       288.215       288.483      0.203577       1.90084      -3.78178             0       4.56155       2.54345             0       63.9987       8.73423             0       26.3219             0             0      0.178943    1.8986e-15      0.221986        102758        103211        234002   3.47859e-15
    0.0410611       288.216       288.482      0.199572       1.91114      -3.70254             0       4.60257       2.52574             0       64.2748       8.94893             0       25.6443             0             0      0.178585   1.91033e-15      0.223544        102758        103212        233803   3.50008e-15
    0.0412312       288.216       288.481      0.196236       1.93537      -3.61846             0       4.64236        2.5048             0       64.4557        9.1297             0       24.9654             0             0       0.17831   1.91844e-15       0.22474        102758        103213        233663   3.51494e-15
    0.0414014       288.216        288.48      0.192901       1.95961      -3.53438             0       4.68215       2.48385             0       64.6366       9.31047             0       24.2864             0             0      0.178035   1.92655e-15      0.225937        102757        103215        233522    3.5298e-15
    0.0415716       288.215        288.48      0.189565       1.98384       -3.4503             0       4.72194       2.46291             0       64.8176       9.49123             0       23.6074             0             0      0.177759   1.93466e-15      0.227133        102757        103216        233381   3.54466e-15
    0.0417417       288.215       288.479      0.186229       2.00808      -3.36622             0       4.76172       2.44197             0       64.9985         9.672             0       22.9285             0             0      0.177484   1.94277e-15      0.228329        102757        103218        233241   3.55952e-15
    0.0419119       288.214       288.478      0.182894       2.03231      -3.28214             0       4.80151       2.42102             0       65.1794       9.85277             0       22.2495             0             0      0.177209   1.95088e-15      0.229526        102756        103219        233100   3.57438e-15
    0.0420821       288.213       288.477       0.18021        2.0683      -3.19521             0       4.83772       2.39867             0       65.3253       9.97381             0       21.5823             0             0      0.177011   1.95597e-15      0.230386        102756        103220        232996   3.58371e-15
    0.0422523        288.21       288.475      0.178226        2.1169      -3.10523             0       4.87008       2.37479             0       65.4337       10.0307             0       20.9278             0             0      0.176896   1.95782e-15      0.230885        102756        103222        232930   3.58709e-15
    0.0424224       288.207       288.474      0.176242       2.16549      -3.01525             0       4.90244       2.35092             0        65.542       10.0877             0       20.2733             0             0      0.176782   1.95967e-15      0.231384        102755        103223        232864   3.59048e-15
    0.0425926       288.204       288.472      0.174259       2.21409      -2.92526             0       4.93481       2.32705             0       65.6504       10.1446             0       19.6188             0             0      0.176667   1.96152e-15      0.231883        102755        103225        232799   3.59387e-15
    0.0427628       288.201       288.471      0.172275       2.26268      -2.83528             0       4.96717       2.30317             0       65.7587       10.2016             0       18.9644             0             0      0.176552   1.96337e-15      0.232382        102755        103226        232733   3.59726e-15
    0.0429329       288.198       288.469      0.170291       2.31128       -2.7453             0       4.99953        2.2793             0       65.8671       10.2585             0       18.3099             0             0      0.176437   1.96522e-15      0.232881        102755        103227        232668   3.60064e-15
    0.0431031       288.194       288.467      0.169305       2.37664      -2.65275             0        5.0235       2.25333             0       65.8955       10.2337             0       17.6684             0             0      0.176387   1.96433e-15      0.233098        102755        103229        232646   3.59902e-15
    0.0432733       288.189       288.465      0.168967       2.45291      -2.55853             0       5.04202       2.22599             0       65.8719       10.1557             0       17.0355             0             0       0.17638   1.96167e-15      0.233131        102754        103230        232654   3.59414e-15
    0.0434434       288.185       288.462      0.168629       2.52918      -2.46431             0       5.06053       2.19865             0       65.8484       10.0776             0       16.4026             0             0      0.176372     1.959e-15      0.233165        102754        103231        232661   3.58926e-15
    0.0436136        288.18        288.46      0.168291       2.60545      -2.37009             0       5.07905       2.17131             0       65.8248       9.99964             0       15.7696             0             0      0.176364   1.95634e-15      0.233198        102754        103233        232669   3.58438e-15
    0.0437838       288.175       288.457      0.167954       2.68172      -2.27587             0       5.09756       2.14397             0       65.8012       9.92162             0       15.1367             0             0      0.176357   1.95367e-15      0.233232        102754        103234        232676   3.57949e-15
     0.043954        288.17       288.454      0.167616       2.75799      -2.18165             0       5.11608       2.11663             0       65.7776       9.84361             0       14.5038             0             0      0.176349   1.95101e-15      0.233265        102754        103235        232684   3.57461e-15
    0.0441241       288.164       288.451      0.168165       2.86132      -2.08301             0       5.12399       2.08344             0        65.536       9.68948             0       13.8867             0             0      0.176421   1.94486e-15       0.23295        102753        103237        232748   3.56334e-15
    0.0442943       288.157       288.447      0.169044       2.97469      -1.98272             0       5.12797       2.04808             0       65.2136       9.50712             0       13.2756             0             0      0.176524   1.93741e-15      0.232505        102753        103238        232834    3.5497e-15
    0.0444645        288.15       288.443      0.169922       3.08806      -1.88244             0       5.13195       2.01272             0       64.8911       9.32475             0       12.6644             0             0      0.176626   1.92997e-15      0.232061        102753        103239        232919   3.53606e-15
    0.0446346       288.144        288.44        0.1708       3.20143      -1.78215             0       5.13593       1.97736             0       64.5686       9.14238             0       12.0533             0             0      0.176728   1.92253e-15      0.231616        102753        103240        233005   3.52242e-15
    0.0448048       288.137       288.436      0.171679       3.31479      -1.68187             0       5.13991       1.94201             0       64.2461       8.96002             0       11.4422             0             0       0.17683   1.91508e-15      0.231172        102753        103242        233090   3.50878e-15
     0.044975        288.13       288.432      0.172557       3.42816      -1.58158             0       5.14389       1.90665             0       63.9236       8.77765             0        10.831             0             0      0.176933   1.90764e-15      0.230727        102752        103243        233176   3.49514e-15
    0.0451451       288.121       288.427      0.173864        3.5851      -1.47608             0       5.13665        1.8603             0       63.2917       8.52114             0       10.2578             0             0      0.177209   1.89352e-15      0.229526        102752        103244        233310   3.46928e-15
    0.0453153       288.112       288.422      0.175246       3.74955      -1.36969             0       5.12747       1.81205             0       62.6065       8.25185             0        9.6911             0             0      0.177515   1.87826e-15      0.228195        102752        103245        233453   3.44132e-15
    0.0454855       288.102       288.417      0.176627         3.914      -1.26329             0       5.11829       1.76381             0       61.9213       7.98255             0       9.12442             0             0      0.177821   1.86299e-15      0.226863        102752        103246        233596   3.41335e-15