#           y             T         TMean   TPrime2Mean           U_x           U_y           U_z       UMean_x       UMean_y       UMean_z UPrime2Mea... UPrime2Mea... UPrime2Mea... UPrime2Mea... UPrime2Mea... UPrime2Mea...            O2           H2O          C3H8             p         pMean   pPrime2Mean           CO2
  1.11022e-19        288.07       288.022      0.089054       25.8952  -6.31699e-17             0       22.3404  -3.28225e-16             0       10.7206   1.13676e-16             0   1.06297e-16             0             0      0.229985   3.11198e-17   6.46775e-05        102799        103158        194902   5.70173e-17
  0.000500501       288.073       288.023     0.0891003       25.9385   -0.00566512             0       22.3419     0.0155821             0       10.7435     -0.144312             0     0.0304573             0             0      0.229933   2.25175e-16   0.000290844        102799        103158        194829   4.12563e-16
     0.001001       288.075       288.023     0.0891478        25.982    -0.0113171             0       22.3433     0.0311642             0       10.7664     -0.288632             0     0.0610409             0             0       0.22988   4.25705e-16   0.000521388        102800        103158        194755    7.7997e-16
    0.0015015       288.108       288.027     0.0897678       26.1368    -0.0104316             0       22.3466     0.0467782             0       10.8259     -0.437468             0      0.154609             0             0      0.229325   3.85677e-15     0.0029361        102800        103157        194589   7.06633e-15
     0.002002       288.141       288.031     0.0904133       26.2919   -0.00939207             0         22.35      0.062385             0       10.8858     -0.586371             0      0.248596             0             0      0.228759   7.40968e-15    0.00539651        102801        103157        194423   1.35759e-14
    0.0025025       288.442       288.046      0.097422        26.525     0.0299779             0       22.3567      0.076217             0       11.0453     -0.752244             0       0.44707             0             0      0.225575   4.13014e-14     0.0192371        102801        103157        194219   7.56718e-14
     0.003003       288.751       288.063      0.104847       26.7587     0.0695124             0       22.3636     0.0900499             0       11.2055     -0.918423             0      0.646719             0             0      0.222354   7.61107e-14     0.0332438        102801        103156        194015   1.39449e-13
    0.0035035        290.38         288.1      0.181303       27.1095      0.136317             0       22.3857      0.104047             0       11.4755       -1.1356             0       1.04105             0             0      0.212801   2.62934e-13      0.074778        102799        103156        193837   4.81744e-13
     0.004004       292.026       288.137      0.259754       27.4593      0.203111             0        22.408       0.11802             0       11.7463      -1.35363             0       1.43727             0             0      0.203227   4.51929e-13      0.116404        102797        103155        193660   8.28018e-13
    0.0045045       295.647       288.184      0.585667       27.6839      0.268649             0       22.4628      0.129046             0       12.1182      -1.67835             0       2.06718             0             0      0.191034   9.10236e-13      0.169417        102793        103154        193574   1.66772e-12
   0.00500501       299.269       288.231      0.914676       27.9047       0.33557             0       22.5183      0.140125             0         12.49      -2.00318             0       2.69722             0             0      0.178886    1.3698e-12      0.222237        102789        103152        193488   2.50973e-12
   0.00550551       303.002       288.275       1.55024       27.7514      0.539479             0       22.6305      0.156445             0       12.8628      -2.33927             0       3.34145             0             0      0.171158   1.95387e-12      0.255835        102777        103151        193440   3.57985e-12
   0.00600601       306.709       288.319       2.18684       27.5923      0.743638             0       22.7416      0.172762             0       13.2337       -2.6753             0       3.98428             0             0      0.163476   2.53515e-12      0.289236        102766        103150        193392   4.64487e-12
   0.00650651       308.287       288.356       2.90938       26.9537      0.968435             0       22.7554      0.188749             0       13.4576      -3.00686             0        4.5122             0             0      0.159538    2.8873e-12      0.306358        102756        103148        193256   5.29007e-12
   0.00700701        309.84       288.393         3.628       26.3077       1.19172             0       22.7647      0.204763             0       13.6769      -3.33587             0       5.03879             0             0      0.155634   3.23486e-12       0.32333        102746        103147        193119   5.92687e-12
   0.00750751       309.567       288.441       4.06993       25.1423       1.30838             0       22.4494       0.22272             0       13.5664      -3.48527             0       5.47086             0             0      0.154154   3.25969e-12      0.329765        102743        103146        192940   5.97235e-12
   0.00800801       309.289       288.488       4.50536       23.9682        1.4247             0       22.1254      0.240877             0       13.4465       -3.6296             0       5.90225             0             0      0.152751   3.27951e-12      0.335864        102741        103145        192760   6.00868e-12
   0.00850851       308.632        288.53       4.54043       22.2631       1.51919             0       21.2697      0.271339             0       12.7498      -3.46196             0       6.29193             0             0      0.156099   2.99215e-12      0.321307        102738        103143        192480   5.48217e-12
   0.00900901       307.987       288.571       4.57104       20.5585       1.61077             0       20.4053      0.301696             0       12.0432        -3.289             0       6.67573             0             0      0.159501    2.6987e-12      0.306519        102736        103142        192197   4.94452e-12
   0.00950951       308.041       288.556       4.35802       18.8813       1.54381             0       19.0678      0.326382             0       10.7989      -2.82571             0       6.73838             0             0      0.165808   2.07352e-12      0.279094        102736        103142        191683   3.79908e-12
      0.01001       308.091       288.539       4.13424       17.2216        1.4661             0       17.7302      0.350391             0       9.56408      -2.36399             0       6.79452             0             0      0.172022   1.45089e-12       0.25208        102736        103142        191166   2.65831e-12
    0.0105105       307.946       288.451       3.38281       16.4185      0.862217             0       16.3852      0.341255             0       8.79236      -1.97922             0       6.53185             0             0      0.173605   9.53254e-13      0.245197        102739        103142        190479   1.74654e-12
     0.011011       307.754       288.362        2.6306       15.6284      0.262163             0       15.0512      0.330964             0       8.05248      -1.61027             0       6.27634             0             0      0.174998   4.63555e-13      0.239139        102743        103142        189792    8.4932e-13
    0.0115115       305.438       288.254       1.84384       15.4212     -0.167562             0       14.2056      0.269258             0       8.72855       -1.9446             0       6.33929             0             0      0.167955   3.26909e-13      0.269763        102744        103142        189135   5.98958e-13
     0.012012       303.108       288.148       1.07035       15.2187     -0.589718             0       13.3731      0.207709             0       9.43773      -2.29279             0       6.41499             0             0       0.16079    1.9264e-13      0.300913        102745        103142        188478   3.52952e-13
    0.0125125        300.24        288.09      0.836558       15.2078     -0.704105             0       13.0726      0.152527             0       11.4937      -3.20426             0       7.00912             0             0        0.1487   1.55079e-13      0.353478        102746        103141        187800   2.84133e-13
     0.013013       297.421       288.034      0.607205       15.2035     -0.819405             0       12.7805      0.097298             0       13.5816      -4.11922             0       7.61461             0             0      0.136588    1.1793e-13      0.406139        102747        103140        187119   2.16069e-13
    0.0135135       296.466        288.03      0.544174       15.4488     -0.968948             0       12.8004     0.0403416             0       16.8683      -5.16487             0       8.64564             0             0      0.123651   9.62157e-14      0.462387        102749        103139        186356   1.76285e-13
     0.014014       295.548       288.027      0.482863       15.7043      -1.11033             0       12.8277    -0.0162204             0       20.1655      -6.20715             0        9.6878             0             0      0.110862   7.47149e-14      0.517992        102751        103137        185592   1.36892e-13
    0.0145145       295.915       288.057      0.481232       16.3188     -0.968396             0        13.111    -0.0590916             0       23.8278      -7.13217             0       11.1162             0             0      0.103198   6.06176e-14      0.551314        102752        103135        184818   1.11063e-13
     0.015015        296.28       288.088      0.479758       16.9347     -0.825748             0        13.401     -0.101667             0       27.4731      -8.04825             0       12.5539             0             0     0.0959139   4.66021e-14      0.582983        102754        103133        184047   8.53837e-14
    0.0155155       296.596       288.126      0.483331       17.5966     -0.660047             0       13.9078     -0.134671             0       30.5698      -8.67532             0       14.2906             0             0      0.100911   3.52304e-14      0.561256        102754        103130        183379   6.45487e-14
     0.016016       296.901       288.163      0.486678       18.2748     -0.480601             0       14.4221     -0.166903             0       33.6633      -9.28301             0       16.0313             0             0      0.106235   2.40584e-14      0.538107        102755        103128        182722   4.40796e-14
    0.0165165       296.845        288.19      0.483215       19.4477      0.114608             0       15.1649     -0.175738             0       36.6594       -9.3044             0       17.8921             0             0      0.121459   1.89255e-14      0.471919        102753        103124        182426   3.46751e-14
     0.017017       296.759       288.217      0.479672       20.6569      0.721329             0       15.9177     -0.182607             0       39.6701      -9.27888             0       19.7533             0             0      0.136787   1.38721e-14      0.405272        102750        103120        182152   2.54163e-14
    0.0175175       295.788       288.224      0.473862       22.8997       1.65511             0       16.9554      -0.13362             0       43.0936      -7.92047             0       21.6265             0             0      0.155114   1.10768e-14       0.32559        102736        103117        182491   2.02948e-14
     0.018018       294.788        288.23      0.466613       25.1179       2.56736             0        17.989    -0.0829714             0       46.5029      -6.52713             0       23.5009             0             0      0.173369   8.29666e-15       0.24622        102723        103112        182858    1.5201e-14
    0.0185185        293.03       288.205      0.420849        26.679       2.90288             0       18.9085     0.0121824             0       49.5318      -4.19852             0       25.4084             0             0       0.18971   5.92033e-15      0.175174        102703        103108        183973   1.08472e-14
     0.019019       291.293       288.181      0.374558       28.1884       3.21604             0       19.8113      0.106001             0       52.5005         -1.88             0       27.3194             0             0      0.205745   3.58375e-15      0.105457        102684        103103        185117    6.5661e-15
    0.0195195       290.096       288.148      0.314923       28.3927       2.96322             0       20.2933      0.166026             0        53.946      0.182889             0       29.3205             0             0       0.21404   2.25316e-15     0.0693933        102664        103098        186997    4.1282e-15
      0.02002       288.931       288.117      0.256415       28.5578       2.69806             0       20.7633      0.224829             0       55.2981       2.22341             0       31.3342             0             0      0.222038   9.65238e-16     0.0346152        102644        103093        188903    1.7685e-15
    0.0205205       288.532       288.104      0.224954        27.782       2.13667             0       20.9477      0.254326             0       54.4079       3.72712             0       33.6508             0             0       0.22294   7.01597e-16      0.030697        102623        103088        191447   1.28546e-15
     0.021021       288.148       288.092      0.194244       26.9578       1.55677             0       21.1222      0.282868             0       53.4325       5.21069             0       35.9768             0             0      0.223746    4.5012e-16     0.0271927        102601        103083        194007   8.24705e-16
    0.0215215       288.082       288.095      0.180699       25.0292      0.554451             0       21.0734      0.289619             0       50.5133       6.23491             0       38.5205             0             0      0.222381   4.76098e-16     0.0331282        102584        103077        196951     8.723e-16
     0.022022       288.021       288.098      0.167245       23.0933     -0.451723             0        21.013      0.294881             0       47.5526       7.24366             0       41.0689             0             0      0.220983   5.03666e-16     0.0392039        102566        103072        199910    9.2281e-16
    0.0225225       288.031       288.111      0.155775       20.9982      -1.54175             0       20.6991      0.267806             0       43.6918       7.91631             0       43.7172             0             0      0.218885   5.65793e-16     0.0483265        102555        103066        203190   1.03664e-15
     0.023023       288.041       288.124      0.144513       18.9465      -2.61506             0       20.3722      0.238659             0       39.8627       8.57353             0       46.3711             0             0      0.216816   6.26595e-16     0.0573238        102544        103060        206487   1.14804e-15
    0.0235235       288.034       288.144      0.137587       17.7937      -3.34189             0       19.7755      0.166553             0        36.689       8.91075             0       49.1396             0             0      0.215344   6.59903e-16     0.0637231        102536        103054        210157   1.20907e-15
     0.024024       288.026       288.165      0.130873       16.6859      -4.05125             0       19.1755     0.0925202             0       33.6083       9.24445             0       51.9141             0             0      0.213928   6.91453e-16     0.0698785        102528        103049        213848   1.26687e-15
    0.0245245       287.997       288.189      0.128354       16.4689      -4.41411             0       18.5111    -0.0197061             0       32.3728       9.50834             0       54.8073             0             0      0.213625   6.88134e-16     0.0711948        102520        103043        217960   1.26079e-15
     0.025025       287.969       288.213       0.12594       16.2535      -4.77718             0        17.853     -0.132448             0       31.1784        9.7856             0       57.7049             0             0      0.213369   6.83203e-16     0.0723094        102512        103038        222093   1.25176e-15
    0.0255255       287.943       288.232      0.125531        16.067      -5.14424             0       17.3154     -0.254984             0       30.7631       10.3171             0       60.6883             0             0      0.213994   6.47661e-16     0.0695901        102502        103032        226612   1.18664e-15
     0.026026       287.918       288.252      0.125081       15.8622      -5.51781             0       16.7792     -0.377938             0       30.3225       10.8512             0       63.6682             0             0      0.214634   6.11963e-16     0.0668108        102492        103026        231144   1.12123e-15
    0.0265265       287.903       288.263      0.123907       15.3249      -6.01014             0       16.2709     -0.508508             0       29.4205       11.4345             0       66.5865             0             0      0.215524   5.73433e-16     0.0629389        102481        103019        235889   1.05064e-15
     0.027027       287.889       288.274       0.12265        14.784      -6.50311             0       15.7565     -0.639974             0       28.4978       12.0069             0       69.4947             0             0      0.216388    5.3619e-16     0.0591829        102470        103012        240634   9.82401e-16
    0.0275275       287.887       288.283      0.119958       14.1784      -7.00721             0       15.1375     -0.787139             0       27.2135       12.3868             0       72.2249             0             0      0.216784   5.21513e-16     0.0574589        102459        103005        245371    9.5551e-16
     0.028028       287.885       288.292      0.117279       13.5727      -7.51158             0       14.5124     -0.935186             0       25.9292       12.7573             0       74.9338             0             0       0.21717   5.07148e-16     0.0557818        102447        102998        250088    9.2919e-16
    0.0285285       287.879       288.298      0.114809        12.967      -8.02047             0       13.7842      -1.09812             0       24.6444       12.9699             0        77.284             0             0      0.217374   4.98039e-16     0.0548949        102435        102990        254477     9.125e-16
     0.029029       287.874       288.305      0.112434       12.3592      -8.52965             0       13.0503      -1.26166             0       23.3876       13.1772             0       79.6008             0             0      0.217581   4.88895e-16     0.0539975        102422        102983        258813   8.95747e-16
    0.0295295       287.861       288.306      0.111618       11.7161      -9.04358             0       12.2221      -1.43513             0       22.5838       13.2977             0       81.3764             0             0      0.217826   4.79189e-16     0.0529291        102410        102976        262298   8.77963e-16
      0.03003       287.849       288.307      0.110843       11.0707      -9.55628             0       11.3894       -1.6092             0       21.8379       13.4208             0       83.1072             0             0      0.218067   4.69786e-16     0.0518831        102398        102968        265702   8.60736e-16
    0.0305305       287.837       288.306      0.110708         10.39      -10.0498             0       10.4868      -1.79247             0       21.9992       13.5852             0       84.1365             0             0      0.218226   4.65145e-16     0.0511896        102386        102962        267848   8.52232e-16
     0.031031       287.825       288.305      0.110538       9.70533      -10.5414             0       9.58097      -1.97547             0       22.2289       13.7594             0       85.1159             0             0      0.218381   4.60704e-16     0.0505156        102373        102956        269906   8.44096e-16
    0.0315315       287.817       288.304      0.109844       8.96231       -11.004             0       8.62718      -2.15435             0       23.4948       14.0821             0        85.341             0             0      0.218468   4.59297e-16     0.0501382        102362        102951        270627   8.41518e-16
     0.032032       287.809       288.302      0.109152       8.21632      -11.4642             0       7.67206      -2.33257             0       24.8047       14.4107             0       85.5215             0             0       0.21855      4.58e-16      0.049784        102351        102945        271276   8.39142e-16
    0.0325325       287.804         288.3      0.108483       7.42695      -11.8887             0        6.6977      -2.50135             0       26.7582       14.8267             0       85.0489             0             0      0.218553   4.58324e-16     0.0497699        102340        102942        270857   8.39735e-16
     0.033033       287.799       288.298      0.107861       6.63398      -12.3107             0       5.72389      -2.66916             0       28.6996       15.2342             0       84.5413             0             0      0.218551    4.5877e-16     0.0497782        102330        102938        270401   8.40553e-16
    0.0335335       287.794       288.296      0.107924       5.79001      -12.6969             0       4.75794      -2.82341             0       30.4679       15.5217             0        83.537             0             0      0.218476   4.60956e-16     0.0501044        102322        102935        269432   8.44557e-16
     0.034034       287.789       288.295      0.108036       4.94098      -13.0793             0       3.79313      -2.97669             0       32.1676       15.7806             0       82.5033             0             0        0.2184   4.63337e-16     0.0504336        102313        102933        268460   8.48919e-16
    0.0345345       287.784       288.295      0.108826       4.02246       -13.411             0       2.84395      -3.11674             0       32.9263       15.6477             0       81.0657             0             0      0.218315   4.68396e-16     0.0508031        102307        102932        267433    8.5819e-16
     0.035035       287.779       288.295       0.10965       3.09782      -13.7364             0        1.8954      -3.25613             0       33.5957       15.4723             0        79.599             0             0      0.218235   4.73601e-16     0.0511502        102300        102931        266416   8.67725e-16
    0.0355355       287.774       288.296       0.11092       2.09186       -13.979             0      0.955304      -3.38693             0       33.0783        14.733             0       77.7458             0             0      0.218224   4.80726e-16     0.0512008        102297        102930        265507    8.8078e-16
     0.036036        287.77       288.297      0.112233       1.08048       -14.213             0     0.0151992      -3.51735             0       32.5112       13.9547             0        75.861             0             0      0.218213   4.87928e-16     0.0512464        102293        102931        264598   8.93975e-16
    0.0365365       287.766       288.299      0.114094  -0.000865459      -14.3369             0     -0.925044      -3.64288             0       31.3031       12.6741             0       73.5681             0             0      0.218218   4.96123e-16     0.0512268        102292        102932        263668    9.0899e-16
     0.037037       287.761       288.301      0.116028       -1.0851       -14.451             0      -1.86524      -3.76734             0       30.1162       11.3824             0       71.2445             0             0      0.218215   5.04267e-16     0.0512383        102292        102934        262717   9.23911e-16
    0.0375375       287.756       288.302      0.118885      -2.20556      -14.4415             0       -2.8048      -3.87831             0       29.1945       9.95094             0       68.5377             0             0      0.218123   5.11775e-16     0.0516392        102294        102937        261494   9.37666e-16
     0.038038       287.752       288.304      0.121807      -3.32585      -14.4226             0      -3.74292      -3.98709             0       28.3496        8.5487             0       65.8053             0             0       0.21802   5.19079e-16     0.0520859        102297        102941        260235   9.51049e-16
    0.0385385       287.747       288.303      0.125525      -4.44426      -14.2874             0      -4.66356      -4.06928             0       28.4382       7.50195             0       62.7615             0             0       0.21779   5.23908e-16     0.0530883        102303        102946        258536   9.59898e-16
     0.039039       287.742       288.303      0.129297       -5.5596       -14.144             0      -5.57964      -4.14824             0        28.626       6.51417             0       59.7019             0             0      0.217551   5.28556e-16     0.0541239        102308        102952        256801   9.68413e-16
    0.0395395       287.736       288.301      0.133697      -6.63861      -13.9023             0      -6.44179       -4.1891             0       29.9856       6.22339             0       56.4561             0             0      0.217223   5.31052e-16     0.0555533        102317        102959        254634   9.72986e-16
      0.04004       287.731       288.299       0.13798      -7.71295      -13.6542             0      -7.29504      -4.22599             0       31.4362        5.9954             0       53.2023             0             0      0.216874   5.33382e-16     0.0570715        102326        102967        252439   9.77256e-16
    0.0405405       287.724       288.297      0.140918      -8.73358      -13.3327             0      -8.04599       -4.2174             0       33.9329       6.48944             0       49.8562             0             0       0.21629   5.33802e-16     0.0596107        102337        102975        249926   9.78024e-16
     0.041041       287.718       288.294      0.143502      -9.74869      -13.0066             0      -8.78396      -4.20426             0       36.4821       7.02578             0       46.5055             0             0       0.21568   5.34051e-16     0.0622621        102348        102984        247405   9.78481e-16
    0.0415415       287.713       288.295      0.142133      -10.7019      -12.6279             0      -9.37651      -4.14022             0       39.6182       8.03565             0       43.1032             0             0      0.214781   5.32396e-16     0.0661691        102362        102994        244789   9.75449e-16
     0.042042       287.709       288.296      0.140638       -11.648      -12.2449             0      -9.95388       -4.0714             0       42.7553       9.05729             0       39.7025             0             0      0.213879   5.30753e-16     0.0700911        102375        103004        242187   9.72438e-16
    0.0425425       287.706         288.3      0.137772      -12.5169      -11.8161             0      -10.3657      -3.95038             0       45.9029       10.2073             0       36.3188             0             0      0.212939   5.29224e-16     0.0741764        102390        103013        239738   9.69637e-16
     0.043043       287.704       288.303      0.135053      -13.3749      -11.3802             0      -10.7625      -3.82425             0       49.0396       11.3426             0        32.948             0             0      0.211984   5.27913e-16     0.0783308        102405        103023        237321   9.67235e-16
    0.0435435       287.703       288.304      0.133897      -14.1166      -10.8683             0      -10.9998      -3.64382             0       52.0589       12.3207             0       29.7137             0             0      0.210859   5.28913e-16     0.0832196        102422        103032        235245   9.69066e-16
     0.044044       287.703       288.305       0.13278      -14.8413      -10.3475             0      -11.2231      -3.45902             0       55.1183       13.2772             0       26.5017             0             0      0.209705   5.30512e-16     0.0882388        102438        103040        233214   9.71997e-16
    0.0445445       287.705       288.302      0.132067      -15.3899      -9.73345             0      -11.3007      -3.22893             0       58.5929        14.011             0       23.5203             0             0       0.20824   5.38327e-16     0.0946101        102455        103049        231659   9.86315e-16
     0.045045       287.708       288.298      0.131427      -15.9169      -9.11221             0      -11.3659      -2.99573             0        62.197       14.7176             0       20.5605             0             0      0.206735   5.48108e-16      0.101154        102472        103057        230150   1.00424e-15
    0.0455455        287.72        288.29      0.131533      -16.2258      -8.41842             0      -11.3056      -2.73105             0       67.1114        15.149             0       17.8209             0             0      0.204828   5.77776e-16      0.109442        102489        103064        229117   1.05859e-15