#           y             T         TMean   TPrime2Mean           U_x           U_y           U_z       UMean_x       UMean_y       UMean_z UPrime2Mea... UPrime2Mea... UPrime2Mea... UPrime2Mea... UPrime2Mea... UPrime2Mea...            O2           H2O          C3H8             p         pMean   pPrime2Mean           CO2
  1.11022e-19       287.714       288.214      0.179112        26.222   1.34579e-17             0       15.7569   1.00251e-17             0        27.046    1.4616e-17             0   2.27365e-17             0             0      0.229884   1.22712e-17   0.000503762        102461        103232        235672   2.24831e-17
  0.000500501       287.703       288.213      0.184809       26.2147     0.0606696             0       15.7673     0.0451944             0       27.0773     0.0658906             0      0.102499             0             0      0.229762   1.67552e-17     0.0010344        102461        103232        235645   3.06986e-17
     0.001001       287.693       288.212      0.190522       26.2074      0.121342             0       15.7777     0.0903883             0       27.1088      0.131758             0      0.205241             0             0      0.229639   2.12607e-17    0.00156948        102461        103232        235617   3.89535e-17
    0.0015015       287.658       288.213      0.204903       26.1805      0.183247             0       15.8016      0.135355             0       27.2286      0.186294             0      0.429626             0             0      0.229006    3.6487e-17     0.0043223        102460        103232        235533    6.6851e-17
     0.002002       287.624       288.213      0.219288       26.1536      0.245153             0       15.8254      0.180319             0       27.3483      0.240813             0       0.65446             0             0      0.228368   5.17625e-17    0.00709479        102460        103231        235448   9.48385e-17
    0.0025025       287.574       288.219      0.234904       26.1302      0.307467             0       15.8347      0.224857             0       27.4582      0.291409             0      0.991352             0             0      0.226604   7.92746e-17     0.0147651        102459        103231        235350   1.45246e-16
     0.003003       287.524       288.224      0.250487       26.1074      0.369735             0       15.8438      0.269394             0       27.5664      0.342082             0       1.32874             0             0      0.224833   1.06817e-16     0.0224671        102458        103231        235252   1.95709e-16
    0.0035035        287.48       288.238      0.260834       26.1739      0.424453             0       15.8129       0.31383             0       27.3956      0.405402             0       1.74761             0             0      0.221852   1.39441e-16     0.0354279        102456        103230        235127   2.55483e-16
     0.004004       287.435       288.251      0.271145       26.2418      0.478934             0       15.7817      0.358279             0       27.2221      0.468997             0       2.16695             0             0      0.218866   1.72029e-16     0.0484089        102454        103230        235001    3.1519e-16
    0.0045045       287.417        288.27      0.276941       26.4775      0.503925             0       15.7103       0.40444             0       26.7039      0.566647             0       2.64315             0             0      0.215306   2.00157e-16      0.063885        102452        103229        234844   3.66724e-16
   0.00500501         287.4       288.289      0.282717       26.7144      0.528819             0       15.6386      0.450603             0        26.185      0.664466             0       3.11986             0             0      0.211745   2.28245e-16     0.0793708        102450        103228        234688   4.18187e-16
   0.00550551       287.427       288.305      0.286524       27.0669      0.544192             0       15.5445      0.496995             0        25.601      0.779015             0       3.64646             0             0      0.207964   2.52481e-16     0.0958098        102448        103228        234547   4.62593e-16
   0.00600601       287.455       288.322      0.290305       27.4183      0.560251             0       15.4505      0.543358             0       25.0191      0.892833             0       4.17385             0             0      0.204178    2.7675e-16      0.112268        102446        103227        234406   5.07058e-16
   0.00650651        287.53       288.336      0.291989       27.6794      0.632857             0       15.3576      0.587407             0       24.6056      0.946435             0       4.76681             0             0      0.200024   3.03645e-16      0.130331        102443        103226        234254   5.56334e-16
   0.00700701       287.605        288.35      0.293643       27.9356      0.707746             0        15.265      0.631417             0        24.196      0.998702             0       5.36108             0             0       0.19587   3.30804e-16      0.148393        102440        103226        234101   6.06094e-16
   0.00750751       287.697        288.36      0.293158       27.8492      0.943403             0       15.1931      0.672665             0       24.0682      0.956973             0       6.04799             0             0      0.191739   3.76548e-16      0.166354        102436        103225        233950   6.89907e-16
   0.00800801       287.789        288.37      0.292635       27.7607       1.18027             0       15.1216      0.713948             0       23.9464      0.915213             0       6.73707             0             0      0.187629   4.22514e-16      0.184221        102432        103224        233799   7.74125e-16
   0.00850851       287.846       288.373      0.289786       27.5372       1.49129             0        15.078      0.757442             0       24.1931      0.871524             0        7.5597             0             0      0.184854   4.82076e-16      0.196287        102428        103223        233714   8.83252e-16
   0.00900901       287.903       288.376      0.286882       27.3228        1.7989             0       15.0345      0.801103             0       24.4427      0.831108             0       8.38436             0             0      0.182109   5.41391e-16      0.208223        102424        103222        233630   9.91929e-16
   0.00950951       287.916       288.376      0.280966       27.6087       1.92002             0       14.9937      0.853861             0       24.8531      0.969286             0       9.31934             0             0      0.180992   5.87288e-16      0.213079        102418        103221        233638   1.07602e-15
      0.01001       287.929       288.376      0.275031       27.9071       2.03703             0        14.952      0.906873             0       25.2581       1.11324             0       10.2548             0             0      0.179896   6.33112e-16      0.217842        102413        103220        233647   1.15998e-15
    0.0105105       287.931       288.379       0.26819       28.8138       1.95202             0       14.8682      0.972395             0       25.3959       1.54039             0       11.2146             0             0      0.179853   6.75289e-16      0.218031        102407        103219        233716   1.23726e-15
     0.011011       287.932       288.382      0.261388       29.7208       1.86672             0       14.7828       1.03808             0       25.5245       1.97258             0       12.1743             0             0      0.179846   7.18096e-16      0.218061        102401        103218        233786   1.31569e-15
    0.0115115       287.937       288.388      0.256335       30.6384       1.76842             0       14.6283       1.11105             0       25.2431       2.62915             0       13.1343             0             0      0.181471   7.88875e-16      0.210994        102392        103216        233910   1.44537e-15
     0.012012       287.941       288.395      0.251299       31.5433       1.67336             0       14.4719       1.18404             0        24.958       3.28918             0       14.0937             0             0      0.183138   8.59946e-16      0.203748        102384        103215        234034   1.57558e-15
    0.0125125        287.93       288.404      0.247009       31.9364       1.71001             0       14.2386        1.2583             0        24.525       4.09002             0       15.0289             0             0      0.186474   9.42894e-16      0.189241        102375        103213        234190   1.72756e-15
     0.013013       287.919       288.413      0.242745       32.3218       1.74976             0       14.0034       1.33246             0       24.0974       4.89248             0       15.9615             0             0      0.189799   1.02494e-15      0.174787        102365        103212        234347   1.87789e-15
    0.0135135       287.896       288.423      0.239505       32.4189       1.90507             0       13.6963       1.40259             0       23.8699       5.75577             0       16.7932             0             0      0.192669   1.07339e-15       0.16231        102354        103210        234571   1.96665e-15
     0.014014       287.874       288.433      0.236323       32.5206       2.06117             0       13.3879       1.47232             0       23.6507       6.61613             0       17.6216             0             0      0.195497   1.12084e-15      0.150013        102343        103209        234799   2.05359e-15
    0.0145145       287.861       288.441      0.235164       32.7806       2.24468             0       13.0302       1.52799             0       23.7193       7.37485             0       18.3357             0             0      0.196878   1.13389e-15      0.144007        102331        103207        235150    2.0775e-15
     0.015015       287.847       288.448      0.234047       33.0408       2.42847             0        12.672       1.58299             0       23.7915       8.12671             0       19.0474             0             0      0.198243   1.14658e-15      0.138074        102318        103206        235504   2.10075e-15
    0.0155155       287.834       288.452      0.234287       33.3067       2.62125             0        12.293       1.61603             0       23.9836       8.65675             0       19.6834             0             0      0.199065   1.14749e-15        0.1345        102303        103205        235978   2.10242e-15
     0.016016       287.821       288.457      0.234514       33.5644       2.81409             0       11.9142       1.64843             0       24.1755       9.18033             0       20.3179             0             0      0.199895   1.14824e-15      0.130892        102289        103203        236456   2.10379e-15
    0.0165165       287.794       288.458       0.23432        33.572       3.00875             0       11.5428       1.66146             0       24.3631       9.50832             0       20.9064             0             0      0.200964   1.14392e-15      0.126245        102271        103202        237074   2.09587e-15
     0.017017       287.767       288.459      0.234037       33.5721       3.20302             0       11.1725       1.67418             0       24.5483       9.83204             0       21.4941             0             0      0.202045   1.13949e-15      0.121542        102254        103201        237695   2.08776e-15
    0.0175175       287.731       288.457      0.231216       33.3563       3.38593             0       10.8323       1.67812             0       24.6654       10.0343             0       22.0572             0             0      0.203493   1.13205e-15       0.11525        102236        103200        238399   2.07413e-15
     0.018018       287.696       288.454       0.22835       33.1301       3.56807             0       10.4934       1.68201             0       24.7751       10.2325             0       22.6208             0             0      0.204935   1.12464e-15      0.108979        102217        103199        239106   2.06056e-15
    0.0185185       287.675       288.446      0.224285       32.6234        3.7294             0        10.188       1.68466             0        24.688       10.3218             0       23.1982             0             0      0.206248   1.11817e-15      0.103271        102197        103199        239893   2.04869e-15
     0.019019       287.654       288.439      0.220313       32.1042       3.89025             0        9.8836       1.68726             0       24.5907       10.4055             0       23.7786             0             0      0.207561   1.11173e-15     0.0975599        102177        103198        240681   2.03689e-15
    0.0195195       287.652       288.434      0.218715       31.2694       4.03871             0       9.60503       1.68847             0       24.2333       10.3458             0       24.4337             0             0      0.208899   1.10618e-15     0.0917455        102157        103197        241519   2.02673e-15
      0.02002       287.651       288.428      0.217157       30.4264       4.18868             0       9.32742       1.68951             0       23.8708        10.279             0       25.0934             0             0      0.210239   1.10058e-15     0.0859169        102137        103196        242354   2.01646e-15
    0.0205205       287.664        288.43      0.216575       29.3848       4.37478             0       9.07292       1.68656             0       23.3851       10.0441             0       25.8617             0             0      0.211658   1.09348e-15     0.0797464        102117        103196        243146   2.00347e-15
     0.021021       287.678       288.433      0.215951        28.332       4.56146             0       8.81933       1.68343             0       22.9004       9.80117             0       26.6339             0             0      0.213059   1.08639e-15     0.0736585        102098        103195        243935   1.99047e-15
    0.0215215       287.699       288.443      0.214348       27.0242       4.76123             0       8.58665       1.67615             0       22.4361       9.37462             0       27.4979             0             0      0.214025   1.07926e-15     0.0694557        102079        103194        244656    1.9774e-15
     0.022022       287.719       288.453      0.212792       25.6985       4.95678             0       8.35447       1.66863             0       21.9741       8.93948             0       28.3637             0             0      0.214972   1.07223e-15     0.0653411        102061        103193        245370   1.96452e-15
    0.0225225       287.732       288.466       0.21226       23.9853       5.06074             0       8.13329       1.65611             0       21.5643       8.31771             0       29.2711             0             0      0.215477   1.06745e-15     0.0631432        102045        103193        245949   1.95578e-15
     0.023023       287.744        288.48       0.21179       22.2549       5.15946             0       7.91234       1.64316             0       21.1571       7.68778             0       30.1781             0             0      0.215976    1.0628e-15     0.0609746        102029        103192        246521   1.94726e-15
    0.0235235       287.745       288.491      0.212594        20.169       5.14952             0       7.69619        1.6212             0        20.805       6.88872             0       31.0777             0             0      0.216335   1.06069e-15     0.0594129        102018        103191        246934   1.94338e-15
     0.024024       287.745       288.502      0.213486       18.0771       5.13602             0       7.48067       1.59859             0       20.4552       6.08328             0       31.9759             0             0      0.216689   1.05866e-15     0.0578737        102006        103191        247340   1.93967e-15
    0.0245245       287.739       288.513      0.216138       15.8674       5.05203             0       7.27764       1.56292             0       20.1509       5.15141             0       32.8439             0             0       0.21694   1.05835e-15     0.0567808        102001        103190        247579   1.93909e-15
     0.025025       287.732       288.523      0.218802       13.6673       4.96416             0       7.07582        1.5266             0       19.8493       4.21515             0       33.7102             0             0      0.217182   1.05808e-15     0.0557318        101996        103190        247808   1.93861e-15
    0.0255255       287.727       288.534      0.221715        11.649       4.80263             0       6.89709        1.4779             0       19.5998       3.19566             0       34.5429             0             0      0.217231   1.05882e-15     0.0555156        101996        103190        247845   1.93996e-15
     0.026026       287.722       288.544      0.224467       9.64176       4.63981             0       6.71977       1.42873             0       19.3565       2.17286             0       35.3733             0             0       0.21726   1.05965e-15     0.0553902        101996        103189        247870   1.94147e-15
    0.0265265       287.728       288.554      0.224288       7.83514       4.45361             0       6.56799       1.37121             0       19.2279       1.08988             0       36.1644             0             0      0.216909   1.06207e-15     0.0569191        102000        103189        247692   1.94592e-15
     0.027027       287.735       288.564      0.223937       6.03476       4.26832             0       6.41753       1.31341             0       19.1103    0.00401898             0       36.9528             0             0      0.216532   1.06459e-15      0.058556        102005        103189        247504   1.95053e-15
    0.0275275       287.752       288.571      0.220559       4.34395       4.09892             0       6.29013       1.25056             0       19.1847      -1.13245             0       37.6954             0             0       0.21572    1.0686e-15     0.0620862        102013        103189        247125   1.95787e-15
     0.028028       287.769       288.579      0.217092       2.66322       3.92962             0       6.16397       1.18753             0       19.2708      -2.27053             0        38.434             0             0      0.214907   1.07259e-15     0.0656218        102021        103188        246738   1.96518e-15
    0.0285285       287.772       288.582      0.212123       1.15249         3.762             0       6.05889        1.1213             0       19.5548      -3.43581             0       39.1046             0             0      0.214073   1.07634e-15     0.0692485        102032        103188        246212   1.97205e-15
     0.029029       287.775       288.586      0.207198     -0.345699       3.59502             0       5.95506        1.0549             0       19.8457      -4.59948             0       39.7676             0             0      0.213221   1.08019e-15     0.0729501        102043        103188        245681   1.97911e-15
    0.0295295       287.755       288.586      0.202977      -1.64015       3.43821             0       5.87152      0.985741             0       20.2488      -5.73694             0       40.3057             0             0       0.21209   1.08574e-15     0.0778673        102056        103188        245089   1.98929e-15
      0.03003       287.735       288.586      0.198836      -2.92389       3.28241             0       5.78889      0.916587             0        20.653      -6.86854             0       40.8304             0             0      0.210942   1.09137e-15      0.082861        102069        103188        244495   1.99959e-15
    0.0305305       287.718       288.585      0.195937      -4.03981       3.14242             0       5.72062       0.84743             0       21.0738      -7.90813             0       41.1436             0             0      0.209518   1.09802e-15     0.0890526        102084        103189        243868   2.01178e-15
     0.031031       287.702       288.584      0.193052      -5.14916       3.00337             0       5.65267      0.778663             0       21.4908      -8.93736             0       41.4375             0             0       0.20813   1.10445e-15     0.0950864        102100        103189        243239   2.02356e-15
    0.0315315       287.703       288.582       0.19038      -6.15928       2.87852             0       5.58942      0.715793             0        21.849      -9.80992             0       41.4399             0             0      0.207291   1.10747e-15     0.0987335        102116        103190        242584   2.02909e-15
     0.032032       287.704        288.58      0.187678      -7.16055       2.75439             0        5.5266      0.653561             0       22.2017      -10.6695             0       41.4205             0             0      0.206481   1.11023e-15      0.102255        102132        103191        241929   2.03415e-15
    0.0325325       287.714       288.578      0.184541      -8.03255       2.64083             0       5.47001      0.600669             0       22.4755      -11.3388             0       41.0805             0             0      0.206093   1.10935e-15      0.103944        102150        103192        241293   2.03254e-15
     0.033033       287.723       288.576      0.181359      -8.88977       2.52676             0       5.41464      0.548401             0        22.753       -11.998             0       40.7214             0             0      0.205705   1.10834e-15      0.105633        102167        103192        240659   2.03069e-15
    0.0335335       287.734       288.574      0.177546      -9.53796       2.40535             0       5.37676      0.504978             0       23.0826      -12.5138             0       40.0909             0             0      0.205317   1.10554e-15      0.107317        102185        103193        240052   2.02556e-15
     0.034034       287.744       288.572      0.173727      -10.1799       2.28329             0       5.34093      0.461983             0       23.4264      -13.0225             0       39.4446             0             0      0.204926   1.10277e-15      0.109016        102203        103195        239449   2.02048e-15
    0.0345345       287.746       288.571      0.169813      -10.7366       2.15233             0       5.33318      0.424845             0       23.9652      -13.4354             0       38.5813             0             0       0.20449   1.10032e-15      0.110911        102220        103196        238913   2.01599e-15
     0.035035       287.747       288.569      0.165909      -11.2908       2.02053             0       5.32812      0.387911             0       24.5154      -13.8398             0       37.7038             0             0      0.204024   1.09782e-15      0.112941        102237        103197        238383    2.0114e-15
    0.0355355       287.739       288.568      0.162132      -11.8122       1.87763             0       5.35884       0.35367             0       25.2168      -14.1311             0       36.6369             0             0      0.203145   1.09465e-15      0.116762        102254        103199        237925    2.0056e-15
     0.036036       287.732       288.566      0.158356      -12.3227        1.7342             0       5.39198      0.319887             0        25.932      -14.4162             0       35.5588             0             0      0.202201   1.09099e-15      0.120867        102271        103200        237470   1.99889e-15
    0.0365365       287.742       288.566      0.154598       -12.694       1.58393             0       5.45635      0.291985             0       26.8239      -14.6222             0       34.3351             0             0      0.200416   1.08094e-15      0.128624        102287        103202        237065   1.98049e-15
     0.037037       287.756       288.565       0.15094      -13.0564       1.43575             0       5.52222      0.264814             0       27.7426      -14.8264             0       33.1021             0             0      0.198579   1.07027e-15      0.136613        102303        103203        236666   1.96093e-15
    0.0375375       287.804       288.565      0.148533      -13.3068       1.31384             0       5.60672      0.246789             0       28.9975      -15.0083             0       31.7544             0             0      0.196076   1.05163e-15      0.147494        102318        103205        236360   1.92678e-15
     0.038038       287.854       288.564       0.14638      -13.5471       1.19479             0        5.6923      0.229203             0       30.2747       -15.188             0       30.4007             0             0      0.193605   1.03317e-15       0.15824        102333        103206        236061   1.89297e-15
    0.0385385       287.921        288.56       0.14732      -13.6647       1.11054             0       5.79109      0.216951             0       31.8236      -15.3396             0       28.9736             0             0      0.191511   1.01693e-15      0.167342        102347        103208        235851    1.8632e-15
     0.039039       287.989       288.556      0.148509      -13.7554       1.02725             0       5.89083      0.204798             0       33.3729      -15.4851             0       27.5445             0             0      0.189497   1.00149e-15        0.1761        102361        103210        235646   1.83492e-15
    0.0395395       288.059       288.548      0.152655      -13.5278       0.95524             0       6.00187      0.193818             0       34.9265      -15.5595             0       26.0916             0             0      0.188419   9.95594e-16      0.180788        102373        103212        235512   1.82411e-15
      0.04004       288.126        288.54      0.156916       -13.271      0.882485             0       6.11283       0.18286             0       36.4714      -15.6253             0       24.6379             0             0      0.187425   9.90702e-16      0.185111        102385        103213        235391   1.81515e-15
    0.0405405       288.174        288.53      0.162494      -12.6778      0.801169             0       6.22285      0.172154             0       37.9153      -15.5937             0       23.1741             0             0      0.187399   9.97357e-16      0.185221        102396        103215        235418   1.82734e-15
     0.041041       288.218       288.519      0.168067      -12.0848      0.720751             0       6.33053      0.161633             0       39.3634      -15.5558             0       21.7093             0             0      0.187458   1.00523e-15      0.184966        102406        103217        235454   1.84177e-15
    0.0415415        288.22       288.507      0.173574      -11.4948      0.650388             0       6.41206      0.153191             0       40.8595      -15.4469             0       20.2328             0             0       0.18846   1.02675e-15      0.180607        102413        103219        235603    1.8812e-15
     0.042042       288.217       288.495      0.178936      -10.9283       0.58238             0       6.49008      0.144915             0        42.353      -15.3262             0       18.7537             0             0       0.18947    1.0496e-15      0.176216        102421        103221        235758   1.92306e-15
    0.0425425       288.165       288.484      0.182722      -10.6181      0.540053             0       6.52982      0.138444             0       43.8174      -15.0763             0       17.2466             0             0      0.190562   1.08691e-15      0.171471        102428        103222        235973   1.99142e-15
     0.043043       288.111       288.474      0.186332      -10.3227      0.497853             0       6.56657      0.131574             0       45.2274      -14.7982             0        15.735             0             0      0.191595   1.12523e-15       0.16698        102434        103224        236197   2.06162e-15
    0.0435435       288.038       288.468      0.188077       -10.184       0.45699             0       6.57153      0.120457             0       46.0589      -14.2204             0       14.1757             0             0      0.192006   1.17425e-15      0.165193        102440        103226        236519   2.15145e-15
     0.044044       287.967       288.461      0.189821      -10.0486      0.416176             0       6.57252      0.108461             0       46.8174      -13.6093             0       12.6174             0             0      0.192319    1.2248e-15      0.163832        102445        103228        236845   2.24406e-15
    0.0445445       287.912       288.457      0.191563      -9.94704      0.375877             0       6.53227     0.0873548             0       46.8185      -12.6542             0         11.07             0             0      0.191617   1.29113e-15      0.166881        102450        103230        237212   2.36559e-15
     0.045045       287.859       288.453      0.193213      -9.85265      0.337681             0        6.4856     0.0661688             0       46.7976       -11.674             0       9.53219             0             0      0.190848    1.3577e-15      0.170224        102455        103231        237582   2.48756e-15
    0.0455455       287.818       288.447      0.193938      -9.83022      0.320766             0       6.37398     0.0441739             0       46.5532      -10.4413             0       8.09041             0             0      0.189394   1.42672e-15      0.176547        102459        103233        237981   2.61402e-15