#           y             T         TMean   TPrime2Mean           U_x           U_y           U_z       UMean_x       UMean_y       UMean_z UPrime2Mea... UPrime2Mea... UPrime2Mea... UPrime2Mea... UPrime2Mea... UPrime2Mea...            O2           H2O          C3H8             p         pMean   pPrime2Mean           CO2
  1.11022e-19       288.219       288.578     0.0967244       16.1099  -2.16798e-17             0       12.6354   1.87392e-18             0       36.6703   3.21194e-18             0   6.09737e-18             0             0      0.184869   2.36554e-15      0.196223        102414        103188        277046    4.3341e-15
  0.000500501       288.196       288.585        0.0945       15.7668    -0.0977349             0       12.6056    0.00844781             0       36.1964     0.0144798             0     0.0274876             0             0      0.186074   2.34568e-15      0.190981        102413        103188        277047   4.29772e-15
     0.001001       288.172       288.593     0.0922773        15.423     -0.195444             0       12.5757     0.0168953             0       35.7208     0.0290382             0      0.055054             0             0      0.187284   2.32571e-15       0.18572        102413        103188        277048   4.26113e-15
    0.0015015       288.094       288.603     0.0908892       14.7627     -0.280433             0       12.4982     0.0251825             0       34.3778     0.0828425             0      0.121967             0             0      0.190705   2.25112e-15      0.170849        102413        103188        277036   4.12448e-15
     0.002002       288.016       288.613     0.0895239       14.1033     -0.365343             0       12.4207     0.0334637             0       33.0337      0.136718             0      0.189063             0             0      0.194131   2.17631e-15      0.155954        102413        103187        277025   3.98741e-15
    0.0025025       287.917       288.614     0.0938436        13.702     -0.430611             0       12.3363     0.0402724             0        31.422      0.208417             0      0.301614             0             0      0.198944   2.04554e-15      0.135025        102413        103187        276996   3.74781e-15
     0.003003        287.82       288.614     0.0981811       13.3028     -0.495764             0       12.2521     0.0470696             0       29.8124      0.279986             0      0.414427             0             0      0.203751    1.9149e-15      0.114126        102413        103187        276968   3.50846e-15
    0.0035035       287.809       288.611      0.105472       13.2404     -0.541791             0       12.1929     0.0519642             0       28.5224      0.330075             0      0.570499             0             0      0.207399   1.80589e-15     0.0982652        102413        103187        276947   3.30873e-15
     0.004004       287.799       288.608      0.112738       13.1786     -0.587735             0       12.1338     0.0568493             0       27.2345      0.379965             0       0.72687             0             0      0.211028   1.69741e-15     0.0824882        102413        103187        276927   3.10998e-15
    0.0045045         287.9       288.606      0.116835       13.1888     -0.623444             0       12.0936     0.0605586             0       26.2203      0.405251             0      0.920386             0             0      0.212267    1.6548e-15     0.0771019        102413        103186        276875   3.03191e-15
   0.00500501       288.002       288.605      0.120837       13.1984     -0.659142             0       12.0534     0.0642624             0       25.2076      0.430398             0       1.11419             0             0      0.213493   1.61255e-15     0.0717718        102413        103186        276824   2.95449e-15
   0.00550551       288.155       288.609      0.115384         13.14       -0.6937             0        12.019     0.0674252             0       24.3417      0.441877             0       1.33675             0             0       0.21344   1.60566e-15     0.0719991        102412        103186        276752   2.94187e-15
   0.00600601       288.309       288.613      0.109864       13.0811     -0.728289             0       11.9847      0.070579             0       23.4778       0.45314             0        1.5596             0             0      0.213384   1.59886e-15     0.0722448        102412        103186        276680   2.92942e-15
   0.00650651       288.443       288.621      0.098871       12.9881     -0.765493             0       11.9554     0.0729854             0       22.7858      0.446652             0       1.80586             0             0      0.212978   1.59991e-15     0.0740091        102412        103185        276584   2.93133e-15
   0.00700701       288.576        288.63     0.0879312        12.895     -0.802696             0       11.9262     0.0753764             0        22.097       0.43978             0       2.05247             0             0      0.212573   1.60093e-15     0.0757717        102412        103185        276488   2.93321e-15
   0.00750751       288.655       288.636     0.0807348       12.8022      -0.83981             0       11.9063     0.0766774             0       21.6381      0.405836             0       2.32426             0             0      0.212195   1.60049e-15     0.0774113        102412        103185        276369    2.9324e-15
   0.00800801       288.733       288.643     0.0736083       12.7092     -0.877001             0       11.8865     0.0779646             0       21.1824      0.371525             0        2.5965             0             0      0.211818   1.60015e-15     0.0790542        102411        103184        276250   2.93178e-15
   0.00850851       288.774       288.645     0.0707812       12.6094     -0.918931             0       11.8733     0.0784032             0       20.9219      0.314665             0       2.89648             0             0      0.211392   1.60597e-15     0.0809066        102411        103184        276113   2.94244e-15
   0.00900901       288.814       288.647     0.0679826       12.5094     -0.961091             0         11.86      0.078835             0        20.663      0.257641             0       3.19698             0             0      0.210971    1.6116e-15     0.0827339        102411        103184        275975   2.95276e-15
   0.00950951       288.826       288.648     0.0667414       12.3966      -1.01578             0       11.8455     0.0788981             0       20.4849      0.191709             0       3.52562             0             0      0.210865   1.60723e-15     0.0831943        102411        103184        275829   2.94474e-15
      0.01001       288.837       288.649     0.0655187       12.2835      -1.07078             0       11.8309     0.0789557             0       20.3066      0.125717             0       3.85491             0             0      0.210769   1.60237e-15     0.0836139        102411        103183        275683   2.93584e-15
    0.0105105       288.833        288.65     0.0652029       12.1515      -1.14158             0       11.8097     0.0787467             0       20.1149     0.0568481             0       4.21571             0             0      0.211132   1.57388e-15     0.0820329        102411        103183        275538   2.88364e-15
     0.011011        288.83       288.651     0.0648992        12.019      -1.21277             0       11.7883     0.0785253             0       19.9216    -0.0121192             0       4.57734             0             0      0.211501   1.54519e-15       0.08043        102410        103183        275394   2.83108e-15
    0.0115115       288.819       288.651     0.0651327       11.8688      -1.30115             0       11.7578     0.0777556             0       19.6592    -0.0854629             0       4.97575             0             0      0.212092   1.50759e-15     0.0778591        102410        103182        275245   2.76219e-15
     0.012012       288.808       288.651     0.0653684       11.7186      -1.38982             0       11.7269     0.0769726             0       19.3936     -0.158696             0       5.37499             0             0      0.212696    1.4694e-15     0.0752366        102410        103182        275097   2.69222e-15
    0.0125125       288.783       288.651     0.0656981       11.5724      -1.49036             0       11.6843      0.075652             0       19.0024      -0.22745             0       5.80799             0             0       0.21378   1.40712e-15      0.070521        102410        103181        274991   2.57811e-15
     0.013013       288.757       288.651     0.0660199       11.4267      -1.59114             0       11.6411     0.0743612             0       18.6051     -0.294881             0       6.24109             0             0      0.214869    1.3445e-15     0.0657869        102409        103181        274886   2.46337e-15
    0.0135135       288.726       288.653     0.0660472       11.3058      -1.70088             0       11.5791     0.0741891             0        17.985     -0.312819             0       6.67753             0             0      0.216118   1.26901e-15     0.0603575        102409        103181        274796   2.32506e-15
     0.014014       288.695       288.654      0.066073       11.1856      -1.81098             0       11.5162     0.0741186             0       17.3563     -0.328004             0       7.11256             0             0      0.217372   1.19269e-15     0.0549043        102409        103180        274707   2.18524e-15
    0.0145145       288.659       288.656     0.0660447       11.0924      -1.93376             0       11.4266     0.0775758             0        16.435     -0.247635             0       7.49899             0             0      0.218817   1.08784e-15     0.0486238        102409        103179        274630   1.99312e-15
     0.015015       288.622       288.658     0.0660173       10.9996      -2.05668             0       11.3361     0.0811256             0       15.5067     -0.165196             0       7.88332             0             0      0.220266   9.82142e-16      0.042321        102409        103179        274553   1.79947e-15
    0.0155155        288.58        288.66     0.0660159       10.9197      -2.18416             0       11.2185     0.0876669             0       14.3539    -0.0158354             0       8.20003             0             0      0.221882   8.49444e-16     0.0352973        102409        103179        274520   1.55634e-15
     0.016016       288.539       288.662      0.066007       10.8397      -2.31108             0       11.1004     0.0941796             0       13.1992      0.132896             0       8.51538             0             0      0.223477   7.18051e-16     0.0283595        102408        103178        274486    1.3156e-15
    0.0165165       288.512       288.663     0.0657662       10.7581      -2.42144             0       10.9634     0.0998247             0       11.9853      0.262605             0       8.78955             0             0      0.224476   6.26104e-16     0.0240183        102408        103178        274440   1.14714e-15
     0.017017       288.485       288.665     0.0655266       10.6764      -2.53084             0        10.826      0.105358             0       10.7744      0.390085             0       9.06246             0             0       0.22546   5.35244e-16     0.0197378        102408        103178        274393   9.80667e-16
    0.0175175       288.465       288.666     0.0653181       10.5927      -2.61337             0        10.677      0.107723             0       9.64784      0.454228             0        9.2997             0             0      0.226048   4.75234e-16     0.0171817        102408        103177        274319   8.70718e-16
     0.018018       288.446       288.668      0.065115       10.5091      -2.69519             0       10.5276      0.110003             0       8.52816      0.516686             0       9.53426             0             0      0.226634   4.15407e-16      0.014635        102408        103177        274242   7.61103e-16
    0.0185185       288.426        288.67     0.0650577       10.4313      -2.75808             0       10.3698      0.110002             0         7.593      0.534035             0       9.69718             0             0      0.227162   3.60454e-16       0.01234        102408        103177        274129   6.60419e-16
     0.019019       288.406       288.671     0.0649958       10.3537      -2.82049             0       10.2119      0.109931             0       6.66822      0.550375             0       9.85641             0             0      0.227685   3.06025e-16     0.0100661        102408        103176        274014   5.60695e-16
    0.0195195       288.388       288.673     0.0648182       10.2843      -2.87041             0        10.051      0.108055             0        6.0061      0.541176             0       9.92228             0             0      0.228085   2.64872e-16    0.00832587        102408        103176        273862   4.85296e-16
      0.02002        288.37       288.676     0.0646151       10.2151      -2.91993             0       9.89017      0.106073             0       5.35599      0.531085             0       9.98467             0             0      0.228479   2.24403e-16    0.00661401        102408        103176        273710   4.11148e-16
    0.0205205       288.358       288.679     0.0638019       10.1535      -2.95957             0       9.73335      0.101546             0       4.99426      0.499594             0       9.96363             0             0      0.228716    2.0034e-16    0.00558388        102408        103176        273566    3.6706e-16
     0.021021       288.346       288.683     0.0629593       10.0921      -2.99883             0       9.57677     0.0969358             0       4.64359      0.467717             0        9.9392             0             0      0.228949   1.76609e-16    0.00456804        102408        103176        273423   3.23581e-16
    0.0215215       288.339       288.687     0.0614448       10.0381      -3.02919             0       9.42593     0.0904214             0       4.54529      0.427054             0       9.83742             0             0      0.229108   1.60459e-16    0.00387829        102408        103176        273305    2.9399e-16
     0.022022       288.332       288.692     0.0599167       9.98428      -3.05899             0       9.27524     0.0839033             0       4.45598      0.386897             0       9.73191             0             0      0.229264   1.44598e-16    0.00320159        102408        103176        273188   2.64931e-16
    0.0225225        288.33       288.697     0.0580911       9.93369      -3.07655             0       9.12779     0.0773039             0       4.56223      0.357759             0       9.54516             0             0      0.229354   1.35049e-16    0.00280829        102408        103177        273068   2.47435e-16
     0.023023       288.329       288.702     0.0562773       9.88314      -3.09348             0        8.9805     0.0707344             0       4.67608      0.329443             0        9.3547             0             0      0.229443   1.25583e-16    0.00242015        102408        103177        272948   2.30092e-16
    0.0235235        288.33       288.706      0.054709       9.83336      -3.09718             0       8.83631     0.0647843             0       4.94728      0.318193             0       9.08723             0             0      0.229508    1.1785e-16    0.00213894        102408        103177        272814   2.15923e-16
     0.024024       288.331       288.711      0.053172       9.78364      -3.10027             0       8.69248     0.0588492             0       5.22543      0.307551             0       8.81646             0             0      0.229572    1.1013e-16    0.00186026        102408        103177        272680   2.01779e-16
    0.0245245       288.334       288.715     0.0522569       9.73488       -3.0912             0       8.55548     0.0532123             0       5.64134      0.308964             0       8.48023             0             0      0.229625   1.02676e-16    0.00163183        102408        103178        272553   1.88122e-16
     0.025025       288.337        288.72     0.0513573       9.68616      -3.08151             0       8.41915     0.0475837             0       6.06247      0.310845             0       8.14137             0             0      0.229677   9.52648e-17    0.00140603        102408        103179        272424   1.74543e-16
    0.0255255       288.341       288.725     0.0507506       9.63818      -3.06012             0       8.29558     0.0421124             0       6.58282      0.321621             0       7.75236             0             0      0.229717   8.86666e-17    0.00123058        102408        103179        272263   1.62454e-16
     0.026026       288.346        288.73     0.0501274       9.59021      -3.03813             0       8.17298     0.0366587             0       7.10472      0.332701             0       7.36183             0             0      0.229757   8.21362e-17    0.00105807        102407        103180        272100   1.50489e-16
    0.0265265       288.352       288.736     0.0492034       9.54226      -3.00513             0       8.06828     0.0315254             0       7.65495      0.349309             0        6.9434             0             0      0.229784   7.68433e-17   0.000939329        102407        103180        271912   1.40791e-16
     0.027027       288.358       288.742     0.0482452       9.49433      -2.97158             0       7.96469     0.0264152             0       8.20283      0.366086             0       6.52468             0             0      0.229811   7.15828e-17   0.000821877        102406        103181        271724   1.31153e-16
    0.0275275       288.363       288.749     0.0466883       9.44677      -2.92848             0       7.88069      0.021709             0       8.70966       0.38584             0       6.10088             0             0      0.229833   6.68893e-17   0.000726966        102405        103181        271512   1.22554e-16
     0.028028       288.368       288.757      0.045156       9.39928      -2.88489             0       7.79786     0.0170577             0       9.21037       0.40575             0        5.6778             0             0      0.229854   6.22362e-17   0.000633493        102405        103182        271300   1.14028e-16
    0.0285285        288.37       288.766     0.0440381        9.3531      -2.83314             0       7.73474     0.0133327             0       9.60787      0.428299             0       5.26672             0             0       0.22987   5.82644e-17   0.000564264        102404        103182        271083   1.06751e-16
     0.029029       288.373       288.774      0.043002       9.30703      -2.78098             0       7.67283    0.00973992             0       9.99526      0.450579             0       4.85723             0             0      0.229886   5.43129e-17   0.000496063        102404        103182        270870   9.95115e-17
    0.0295295       288.374        288.78     0.0432943       9.26286      -2.72214             0       7.63058    0.00829462             0       10.2184      0.468501             0       4.47339             0             0      0.229898   5.06932e-17   0.000444556        102404        103183        270707   9.28794e-17
      0.03003       288.376       288.786     0.0436151        9.2188      -2.66291             0       7.58946    0.00700952             0       10.4296      0.485529             0       4.09199             0             0       0.22991    4.7068e-17    0.00039337        102404        103183        270549   8.62374e-17
    0.0305305       288.377       288.789     0.0443831       9.17632      -2.59775             0       7.56611    0.00823436             0       10.4539      0.488559             0       3.74884             0             0       0.22992   4.33571e-17     0.0003472        102404        103184        270464   7.94382e-17
     0.031031       288.379       288.791     0.0451219       9.13388      -2.53223             0       7.54362    0.00955513             0        10.469      0.490641             0       3.40882             0             0      0.229931   3.96461e-17   0.000301182        102404        103184        270383    7.2639e-17
    0.0315315        288.38        288.79      0.045421       9.09201      -2.46154             0       7.53399     0.0123273             0       10.3446      0.478398             0       3.11598             0             0      0.229941   3.59347e-17   0.000257448        102404        103185        270344   6.58391e-17
     0.032032        288.38       288.789      0.045682       9.05017      -2.39057             0       7.52475     0.0151103             0       10.2173      0.465662             0       2.82643             0             0      0.229951   3.22609e-17   0.000214395        102404        103185        270310    5.9108e-17
    0.0325325       288.381       288.785     0.0453853       9.00875      -2.31545             0       7.52121     0.0180534             0       10.0475      0.445726             0       2.58503             0             0      0.229958   2.91371e-17     0.0001813        102404        103185        270354   5.33847e-17
     0.033033       288.382       288.782     0.0450567       8.96735       -2.2401             0       7.51763     0.0209643             0       9.88063      0.425676             0       2.34653             0             0      0.229966   2.60176e-17   0.000148935        102404        103186        270402   4.76692e-17
    0.0335335       288.383       288.777     0.0442754       8.92646      -2.16153             0       7.51361     0.0234195             0       9.75454      0.404011             0       2.14921             0             0      0.229971   2.29588e-17   0.000126909        102404        103186        270520   4.20648e-17
     0.034034       288.384       288.772      0.043458       8.88562      -2.08277             0       7.50941     0.0258362             0       9.63302      0.382374             0       1.95413             0             0      0.229976   1.99303e-17   0.000105237        102404        103186        270640   3.65161e-17
    0.0345345       288.385       288.765     0.0421474       8.84546      -2.00134             0        7.5028     0.0277255             0       9.57415      0.361123             0       1.78968             0             0       0.22998   1.73185e-17   8.84269e-05        102404        103186        270799   3.17307e-17
     0.035035       288.386       288.758     0.0408123       8.80533      -1.91974             0       7.49612     0.0295737             0       9.51795      0.339977             0       1.62689             0             0      0.229983    1.4798e-17   7.20352e-05        102404        103187        270962   2.71128e-17
    0.0355355       288.387        288.75     0.0391517       8.76564      -1.83593             0       7.48869     0.0308765             0       9.49717       0.32023             0       1.48629             0             0      0.229986   1.34923e-17    6.1201e-05        102404        103187        271181   2.47204e-17
     0.036036       288.388       288.742     0.0375094       8.72598      -1.75199             0       7.48136     0.0321425             0        9.4766       0.30061             0       1.34704             0             0      0.229988   1.22138e-17   5.05777e-05        102404        103187        271401    2.2378e-17
    0.0365365       288.389       288.733     0.0361021       8.68674      -1.66624             0        7.4755     0.0329354             0       9.45863      0.282642             0       1.22519             0             0       0.22999   1.12868e-17   4.26739e-05        102403        103187        271636   2.06794e-17
     0.037037       288.389       288.724      0.034753       8.64749      -1.58036             0       7.46982     0.0336975             0       9.43982       0.26478             0       1.10455             0             0      0.229992   1.03559e-17   3.49372e-05        102403        103188        271871    1.8974e-17
    0.0375375       288.389       288.716      0.034133       8.60831      -1.49292             0       7.46634     0.0340744             0       9.41032      0.248248             0      0.998954             0             0      0.229993   9.37816e-18   2.92906e-05        102403        103188        272115   1.71825e-17
     0.038038       288.389       288.709     0.0335707       8.56911      -1.40536             0         7.463     0.0344214             0       9.38019       0.23181             0      0.894492             0             0      0.229995    8.3963e-18   2.37484e-05        102403        103188        272360   1.53836e-17
    0.0385385        288.39       288.703     0.0337086       8.52962      -1.31637             0       7.46134     0.0344065             0       9.34234      0.216509             0      0.803861             0             0      0.229996   7.36473e-18   1.94759e-05        102403        103188        272622   1.34936e-17
     0.039039        288.39       288.698     0.0338714       8.49004       -1.2273             0       7.45975     0.0343614             0       9.30446      0.201304             0      0.714282             0             0      0.229996   6.34339e-18    1.5275e-05        102403        103188        272886   1.16223e-17
    0.0395395        288.39       288.695     0.0343285       8.44931      -1.13738             0       7.45899     0.0339604             0       9.26617      0.187225             0      0.637148             0             0      0.229997   5.44287e-18     1.192e-05        102403        103188        273158   9.97234e-18
      0.04004        288.39       288.691     0.0347836       8.40839      -1.04748             0       7.45824     0.0335289             0       9.22825      0.173253             0      0.560973             0             0      0.229998   4.56414e-18   8.66889e-06        102403        103188        273433   8.36234e-18
    0.0405405        288.39       288.689     0.0352157       8.36519     -0.957754             0       7.45772     0.0327465             0       9.19458      0.160522             0      0.495815             0             0      0.229998   3.93597e-18   6.61224e-06        102403        103188        273725   7.21143e-18
     0.041041       288.391       288.687     0.0356325       8.32159     -0.868233             0       7.45721     0.0319331             0       9.16137      0.147889             0      0.431528             0             0      0.229999   3.32472e-18   4.62979e-06        102403        103188        274017    6.0915e-18
    0.0415415       288.391       288.686     0.0358794        8.2735     -0.780955             0       7.45669     0.0307725             0       9.13345      0.136368             0      0.376992             0             0      0.229999   2.90279e-18     3.478e-06        102403        103188        274305   5.31846e-18
     0.042042       288.391       288.685     0.0361165       8.22472     -0.694106             0       7.45617     0.0295785             0       9.10599      0.124942             0      0.323257             0             0      0.229999   2.48988e-18   2.36611e-06        102403        103188        274591   4.56192e-18
    0.0425425       288.391       288.685     0.0362464       8.16836     -0.611942             0       7.45556     0.0280218             0       9.08364      0.114566             0       0.27825             0             0          0.23   2.17517e-18   1.68943e-06        102403        103188        274851   3.98531e-18
     0.043043       288.391       288.685     0.0363695       8.11069     -0.530571             0       7.45494     0.0264295             0       9.06164      0.104276             0      0.233977             0             0          0.23   1.86434e-18   1.04422e-06        102403        103188        275111   3.41582e-18
    0.0435435       288.392       288.685     0.0364199       8.03922     -0.457616             0       7.45422     0.0244594             0       9.04333     0.0949104             0      0.197505             0             0          0.23   1.59486e-18   7.33579e-07        102403        103189        275369   2.92208e-18
     0.044044       288.392       288.684     0.0364658       7.96526     -0.385802             0       7.45336     0.0224486             0       9.02556     0.0856468             0      0.161713             0             0          0.23   1.33183e-18   4.38323e-07        102403        103189        275625   2.44017e-18
    0.0445445       288.393       288.684      0.036465       7.86551     -0.325815             0       7.45108     0.0200166             0       9.01337     0.0774408             0      0.132965             0             0          0.23   1.13576e-18   3.02513e-07        102403        103189        275858   2.08092e-18
     0.045045       288.394       288.684     0.0364654       7.76072     -0.267302             0       7.44792     0.0175399             0       8.99831     0.0694023             0      0.104844             0             0          0.23   9.45125e-19   1.74385e-07        102403        103189        276087   1.73164e-18
    0.0455455       288.395       288.685     0.0364785        7.6048     -0.223704             0       7.43586     0.0146117             0       8.95415     0.0630573             0     0.0830597             0             0          0.23   8.09547e-19   1.23932e-07        102404        103189        276273   1.48324e-18