#           y             T         TMean   TPrime2Mean           U_x           U_y           U_z       UMean_x       UMean_y       UMean_z UPrime2Mea... UPrime2Mea... UPrime2Mea... UPrime2Mea... UPrime2Mea... UPrime2Mea...            O2           H2O          C3H8             p         pMean   pPrime2Mean           CO2
  1.11022e-19         287.9       288.095      0.125131       24.0016  -2.27171e-16             0       19.8313  -2.09242e-16             0       23.9516  -7.42494e-17             0   4.48484e-16             0             0       0.22991   5.57787e-18   0.000390706        102839        103187        220228   1.02197e-17
  0.000500501       287.893       288.097       0.12685       24.0099    -0.0506024             0       19.8339     0.0556314             0       24.0007    -0.0516023             0     0.0532132             0             0      0.229763   8.56107e-18    0.00103225        102839        103187        220177   1.56855e-17
     0.001001       287.885       288.099      0.128577       24.0181     -0.101171             0       19.8365      0.111263             0         24.05     -0.103191             0      0.106583             0             0      0.229614   1.15591e-17    0.00168018        102839        103187        220126   2.11785e-17
    0.0015015       287.858       288.107      0.134663       24.0588     -0.134697             0       19.8455      0.166923             0       24.1931     -0.147969             0      0.238153             0             0      0.228732   2.19833e-17    0.00551507        102839        103187        219949   4.02775e-17
     0.002002       287.831       288.114      0.140756       24.0999     -0.168204             0       19.8546      0.222584             0       24.3369     -0.192757             0      0.370141             0             0      0.227841   3.24496e-17    0.00938881        102839        103187        219772   5.94538e-17
    0.0025025       287.782       288.128      0.148635       24.2626     -0.196702             0       19.8714      0.278262             0       24.6786     -0.239855             0      0.605938             0             0      0.224724   5.34333e-17     0.0229388        102839        103187        219504   9.78999e-17
     0.003003       287.733       288.142      0.156497       24.4259     -0.225826             0       19.8882      0.333944             0       25.0214     -0.286888             0       0.84243             0             0      0.221583   7.44876e-17     0.0365961        102839        103186        219236   1.36475e-16
    0.0035035       287.704       288.161      0.161562       24.6913     -0.358662             0       19.9212      0.390167             0       25.5601     -0.323194             0       1.19412             0             0      0.214355   1.07233e-16     0.0680232        102839        103186        218943    1.9647e-16
     0.004004       287.676       288.179       0.16659       24.9545     -0.492551             0       19.9541      0.446409             0       26.0977     -0.359314             0       1.54677             0             0      0.207108   1.40002e-16     0.0995288        102839        103185        218651    2.5651e-16
    0.0045045       287.767       288.192      0.167097       24.9384     -0.756975             0       19.9792      0.505081             0       26.4969     -0.372272             0       2.01674             0             0      0.197625   1.75824e-16      0.140761        102838        103185        218317   3.22142e-16
   0.00500501       287.859       288.204      0.167563       24.9124      -1.02138             0       20.0038      0.563778             0       26.8907     -0.384379             0       2.48758             0             0       0.18816   2.11569e-16      0.181912        102838        103184        217983   3.87635e-16
   0.00550551       288.041        288.21      0.164129       23.9022      -1.28343             0        19.978      0.624962             0       26.7481     -0.312132             0       3.04525             0             0      0.180554   2.39819e-16      0.214984        102836        103183        217604   4.39392e-16
   0.00600601       288.223       288.216        0.1607       22.8785      -1.54375             0        19.951      0.686191             0       26.5983     -0.237667             0       3.60299             0             0      0.172983   2.67977e-16      0.247898        102834        103182        217226   4.90983e-16
   0.00650651       288.327       288.223      0.157763        20.742      -1.66145             0       19.8235       0.75114             0       25.8524     0.0193502             0       4.16738             0             0        0.1684   2.88633e-16      0.267825        102833        103182        216864   5.28829e-16
   0.00700701        288.43        288.23      0.154853        18.609      -1.77976             0       19.6941      0.816134             0       25.1036      0.280791             0       4.73126             0             0       0.16383   3.09281e-16      0.287697        102832        103181        216501   5.66661e-16
   0.00750751       288.401       288.243      0.153809       16.7257      -1.94082             0       19.4234      0.884259             0       24.1516      0.853776             0       5.25919             0             0      0.160135   3.29443e-16      0.303761        102832        103180        216061   6.03601e-16
   0.00800801       288.371       288.256       0.15282       14.8579      -2.10376             0       19.1506      0.952317             0       23.2032       1.42865             0        5.7867             0             0      0.156404   3.49702e-16      0.319985        102832        103180        215618   6.40719e-16
   0.00850851       288.307       288.275      0.155211       13.9446      -2.38258             0        18.745       1.01625             0       22.4725        2.1197             0       6.28772             0             0      0.150431   3.75955e-16      0.345952        102833        103179        215057    6.8882e-16
   0.00900901       288.244       288.294      0.157674       13.0381      -2.66003             0        18.338       1.07965             0       21.7494       2.80242             0       6.79092             0             0      0.144449   4.02144e-16      0.371963        102833        103178        214497   7.36803e-16
   0.00950951       288.208        288.31      0.164018       12.5018      -2.86322             0         17.85       1.11364             0       21.4378       3.03036             0       7.41316             0             0      0.137908   4.24802e-16      0.400399        102832        103177        213980   7.78316e-16
      0.01001       288.173       288.326      0.170338       11.9702      -3.06588             0        17.362       1.14702             0       21.1489       3.24721             0       8.03974             0             0      0.131416   4.47202e-16      0.428626        102832        103176        213464   8.19357e-16
    0.0105105       288.169       288.331      0.175511        11.666      -3.24206             0       16.8784       1.15013             0       21.9754       2.92038             0       8.87923             0             0      0.127274    4.5698e-16      0.446635        102831        103175        213033   8.37273e-16
     0.011011       288.165       288.335      0.180652       11.3666      -3.41663             0       16.3951       1.15301             0       22.8439       2.59067             0       9.72107             0             0      0.123174   4.66563e-16       0.46446        102831        103174        212606    8.5483e-16
    0.0115115       288.176       288.323      0.184334       11.2813      -3.51975             0       15.9294       1.14565             0       25.5796       2.13252             0        10.667             0             0      0.120959   4.67448e-16       0.47409        102831        103173        212378   8.56452e-16
     0.012012       288.187       288.312      0.188161       11.2006      -3.62008             0       15.4635       1.13837             0       28.3524       1.67629             0       11.6136             0             0       0.11878   4.68173e-16      0.483565        102830        103171        212158   8.57781e-16
    0.0125125       288.175       288.294      0.197889       11.3047      -3.60669             0       14.9852       1.13463             0       32.6309       1.29806             0       12.5901             0             0      0.118051   4.62378e-16      0.486736        102830        103170        212241   8.47163e-16
     0.013013       288.163       288.277      0.207848       11.4127      -3.59203             0       14.5084       1.13046             0       36.9138      0.916692             0       13.5717             0             0      0.117351    4.5644e-16      0.489777        102829        103168        212332   8.36284e-16
    0.0135135       288.112       288.268      0.226478       11.6669      -3.52984             0       14.0907       1.11059             0       41.3574      0.417403             0       14.7465             0             0      0.117788   4.45156e-16      0.487879        102829        103166        212701   8.15609e-16
     0.014014        288.06       288.259       0.24515       11.9193      -3.46669             0       13.6757       1.09019             0       45.7718    -0.0868237             0       15.9295             0             0      0.118235   4.33963e-16      0.485935        102829        103164        213077   7.95102e-16
    0.0145145       288.004        288.26      0.265312       12.1103      -3.37028             0       13.3564       1.05133             0       49.1709     -0.762481             0       17.4002             0             0      0.119059   4.25939e-16       0.48235        102829        103162        213675   7.80399e-16
     0.015015       287.948       288.261      0.285361       12.2905      -3.27494             0       13.0382       1.01252             0       52.5293      -1.43732             0       18.8726             0             0      0.119875   4.18276e-16      0.478803        102830        103160        214280    7.6636e-16
    0.0155155       287.935       288.266      0.301771       12.1198        -3.214             0       12.7521      0.975314             0       54.5678      -2.08557             0       20.4013             0             0      0.120415   4.22338e-16      0.476457        102829        103158        215119   7.73801e-16
     0.016016       287.925       288.271      0.318056       11.9423      -3.15638             0       12.4664      0.938707             0       56.5698      -2.72883             0       21.9281             0             0      0.120945    4.2676e-16      0.474154        102829        103156        215966   7.81903e-16
    0.0165165       287.965       288.278      0.330562       11.5588      -3.19967             0       12.1938      0.920248             0       57.4664      -3.22147             0        23.396             0             0      0.121177   4.42088e-16      0.473141        102829        103154        217042   8.09988e-16
     0.017017       288.005       288.286      0.342936       11.1813      -3.24569             0       11.9219      0.902568             0       58.3396      -3.71098             0       24.8632             0             0       0.12142   4.57455e-16      0.472086        102828        103152        218122   8.38143e-16
    0.0175175       288.052       288.296       0.35156       10.9729       -3.3695             0       11.6731      0.907017             0       58.5486      -4.11172             0       26.3101             0             0      0.121941   4.73906e-16      0.469823        102828        103150        219344   8.68284e-16
     0.018018       288.098       288.306      0.360031       10.7666      -3.49203             0       11.4245      0.912317             0       58.7349      -4.51191             0        27.758             0             0      0.122478   4.90243e-16      0.467485        102828        103148        220568   8.98217e-16
    0.0185185       288.139       288.318      0.364398         10.62      -3.58042             0       11.1814      0.940409             0       58.3169      -4.89721             0       29.2308             0             0       0.12348   5.03547e-16      0.463131        102829        103147        221877   9.22592e-16
     0.019019        288.18       288.329      0.368612        10.471      -3.66486             0       10.9377      0.969332             0       57.8645      -5.28044             0       30.7033             0             0       0.12449   5.16802e-16      0.458737        102830        103145        223186   9.46877e-16
    0.0195195       288.232        288.34      0.368935       10.2592      -3.64908             0       10.6778       1.01929             0       56.5396      -5.61111             0       32.1666             0             0      0.125731   5.28826e-16      0.453343        102831        103143        224477   9.68908e-16
      0.02002       288.284        288.35      0.369112       10.0474      -3.62795             0       10.4173       1.07026             0        55.183      -5.93694             0       33.6277             0             0      0.126982   5.40667e-16      0.447905        102832        103141        225765   9.90603e-16
    0.0205205       288.322       288.358      0.365751       9.83345      -3.47841             0       10.1433       1.14533             0        53.069      -6.14635             0       35.0371             0             0      0.128475    5.4811e-16      0.441412        102834        103140        226990   1.00424e-15
     0.021021       288.359       288.366      0.362405       9.62085      -3.32389             0       9.86981        1.2215             0       50.9465      -6.34736             0       36.4447             0             0      0.129973   5.55399e-16      0.434902        102835        103138        228210    1.0176e-15
    0.0215215       288.378       288.375       0.35941       9.43842      -3.05598             0       9.60726       1.32285             0        48.632      -6.35692             0       37.8132             0             0      0.131555   5.59182e-16      0.428021        102836        103137        229309   1.02453e-15
     0.022022       288.396       288.383       0.35659       9.25915      -2.78483             0       9.34645       1.42536             0       46.3248      -6.35642             0       39.1806             0             0      0.133137   5.62862e-16      0.421141        102837        103136        230401   1.03127e-15
    0.0225225         288.4       288.391       0.35757       9.14856      -2.44336             0       9.12334       1.55324             0       44.1741      -6.13756             0       40.5265             0             0       0.13472   5.64318e-16      0.414261        102837        103135        231339   1.03394e-15
     0.023023       288.404       288.399      0.358604        9.0412      -2.10049             0       8.90237       1.68216             0       42.0233      -5.90892             0       41.8736             0             0      0.136294   5.65678e-16      0.407419        102838        103134        232268   1.03643e-15
    0.0235235       288.397       288.403      0.360752       9.00089      -1.72857             0       8.72581       1.83266             0       39.8689       -5.4774             0       43.2477             0             0      0.137688   5.65064e-16      0.401358        102839        103133        233019    1.0353e-15
     0.024024        288.39       288.407      0.362764       8.96223      -1.35694             0       8.55076       1.98424             0       37.7068      -5.03273             0       44.6239             0             0       0.13906   5.64445e-16      0.395389        102840        103132        233761   1.03417e-15
    0.0245245       288.382       288.407      0.362075       8.95649     -0.990995             0       8.40565       2.15728             0        35.392      -4.32699             0       46.0408             0             0      0.140014   5.63714e-16      0.391243        102840        103132        234303   1.03283e-15
     0.025025       288.374       288.407      0.361263       8.95171     -0.627097             0       8.26151       2.33153             0       33.0818      -3.60214             0         47.46             0             0       0.14094    5.6309e-16      0.387219        102840        103131        234829   1.03169e-15
    0.0255255       288.375       288.403      0.358113       8.96508     -0.302114             0       8.13576       2.52858             0       30.8583      -2.51398             0       48.9223             0             0      0.141333   5.64482e-16      0.385509        102841        103131        235043   1.03424e-15
     0.026026       288.377       288.399      0.354968       8.97833     0.0202677             0       8.01088       2.72678             0       28.6656      -1.40358             0       50.3888             0             0      0.141706   5.66062e-16      0.383887        102841        103131        235237   1.03713e-15
    0.0265265       288.394       288.392      0.351904        8.9894      0.295249             0       7.90187       2.94602             0        27.033      0.112273             0       51.9303             0             0      0.141712   5.71081e-16      0.383859        102841        103130        235048   1.04633e-15
     0.027027       288.412       288.384      0.348843       8.99629      0.570159             0       7.79317       3.16606             0        25.451       1.64946             0       53.4741             0             0      0.141717   5.76232e-16      0.383841        102841        103130        234839   1.05576e-15
    0.0275275        288.44       288.375      0.345839       8.93009      0.843809             0       7.68981       3.40036             0       24.7573       3.56037             0       55.0589             0             0      0.141686   5.83694e-16      0.383972        102842        103130        234257   1.06944e-15
     0.028028       288.468       288.365      0.342746       8.85467       1.12079             0       7.58591       3.63496             0        24.114       5.48478             0       56.6356             0             0      0.141659   5.91256e-16       0.38409        102842        103131        233654   1.08329e-15
    0.0285285       288.507       288.356      0.338141       8.62396       1.45394             0       7.47274       3.87476             0       24.3214       7.63683             0        58.076             0             0      0.141688   6.00494e-16      0.383967        102843        103131        232692   1.10022e-15
     0.029029       288.545       288.347      0.333415       8.38544       1.78842             0       7.35871       4.11454             0       24.5664       9.78848             0       59.4977             0             0      0.141743   6.09697e-16      0.383725        102844        103131        231718   1.11708e-15
    0.0295295       288.586        288.34      0.326705       8.01988       2.14451             0       7.23076       4.35381             0       25.4205       11.9334             0       60.6146             0             0      0.142247   6.18343e-16      0.381536        102844        103132        230538   1.13292e-15
      0.03003       288.626       288.333      0.319963       7.65417         2.493             0       7.10242       4.59298             0       26.3005       14.0648             0       61.7108             0             0      0.142837   6.26579e-16      0.378968        102844        103133        229350   1.14801e-15
    0.0305305       288.637       288.328      0.312704       7.28624       2.72227             0       6.96777       4.83043             0       27.5863       15.9847             0       62.4823             0             0      0.144797   6.28405e-16      0.370448        102844        103134        228042   1.15136e-15
     0.031031       288.645       288.323      0.305477        6.9254       2.93583             0       6.83323       5.06768             0       28.8932       17.8836             0       63.2372             0             0      0.146897   6.29757e-16      0.361319        102843        103135        226733   1.15383e-15
    0.0315315       288.602       288.319      0.298713       6.67198       2.91189             0       6.70027       5.30163             0       30.5207       19.4664             0       63.7422             0             0      0.151117   6.23939e-16      0.342969        102843        103136        225427   1.14317e-15
     0.032032       288.556       288.314      0.292045       6.42607       2.87349             0       6.56748       5.53498             0       32.1685        21.025             0       64.2337             0             0      0.155438   6.17922e-16      0.324182        102842        103137        224130   1.13215e-15
    0.0325325        288.47       288.308      0.286775       6.28981       2.62369             0       6.43698       5.75958             0       34.1141       22.2304             0       64.5293             0             0      0.161233   6.08991e-16      0.298988        102841        103139        222975   1.11578e-15
     0.033033       288.383       288.303      0.281713       6.15475       2.36863             0       6.30636       5.98288             0       36.0748       23.4077             0       64.8093             0             0      0.167013   6.00311e-16      0.273857        102839        103140        221833   1.09988e-15
    0.0335335       288.284       288.297      0.279601       6.03657       2.03918             0         6.174       6.18794             0       38.2497       24.1865             0       64.8671             0             0      0.172589   5.95197e-16      0.249611        102836        103142        220868   1.09051e-15
     0.034034       288.187        288.29      0.277718       5.91417       1.71512             0       6.04105       6.39082             0        40.428       24.9307             0       64.9018             0             0      0.178029   5.90844e-16      0.225963        102833        103144        219920   1.08254e-15
    0.0345345       288.114       288.284      0.278976       5.73379       1.46501             0       5.89991       6.56391             0       42.6537       25.1994             0       64.6195             0             0      0.181584   5.96915e-16      0.210505        102830        103146        219199   1.09366e-15
     0.035035       288.044       288.278      0.280357       5.54926       1.22387             0       5.75741       6.73383             0       44.8714       25.4281             0       64.3062             0             0      0.184999   6.03795e-16      0.195657        102828        103148        218497   1.10627e-15
    0.0355355       288.005       288.273      0.283364       5.30969       1.10194             0       5.59682       6.86166             0       46.9826       25.1259             0       63.5807             0             0      0.186552   6.21417e-16      0.188903        102824        103150        218059   1.13855e-15
     0.036036       287.968       288.269      0.286295       5.06941      0.986696             0       5.43388       6.98547             0       49.0805       24.7826             0       62.8185             0             0      0.188038   6.39563e-16      0.182443        102821        103153        217638    1.1718e-15
    0.0365365       287.947       288.267      0.288229       4.81999      0.957684             0        5.2407       7.05744             0       51.0069       23.9086             0       61.5831             0             0      0.188649   6.64465e-16      0.179788        102817        103156        217446   1.21742e-15
     0.037037       287.928       288.265      0.290016       4.57387        0.9322             0       5.04437       7.12488             0       52.9195       22.9965             0       60.3079             0             0      0.189217   6.89563e-16      0.177318        102812        103159        217268   1.26341e-15
    0.0375375        287.92       288.265      0.289964        4.3691      0.950863             0       4.80849       7.13556             0        54.659       21.6087             0       58.5358             0             0      0.189251   7.17111e-16      0.177171        102808        103162        217275   1.31388e-15
     0.038038       287.914       288.265       0.28983       4.17031      0.971122             0       4.56875       7.14164             0         56.39       20.1929             0       56.7249             0             0      0.189267   7.44272e-16      0.177099        102804        103166        217296   1.36365e-15
    0.0385385       287.913       288.265      0.288708       4.04423        1.0108             0       4.28218       7.09174             0       58.0179        18.437             0       54.4429             0             0      0.189074   7.66731e-16      0.177939        102800        103169        217504    1.4048e-15
     0.039039       287.912       288.265      0.287398       3.92533       1.05188             0       3.99149       7.03731             0       59.6428       16.6669             0       52.1289             0             0      0.188879   7.88716e-16      0.178787        102796        103173        217725   1.44507e-15
    0.0395395       287.912       288.265      0.283867       3.89135       1.10963             0       3.65201       6.92935             0       61.2313       14.7284             0       49.4354             0             0      0.188659   8.05088e-16      0.179743        102791        103178        218110   1.47507e-15
      0.04004       287.912       288.266      0.280012       3.86477       1.16911             0       3.30951       6.81671             0       62.8006       12.7825             0        46.722             0             0      0.188445   8.21216e-16      0.180676        102787        103182        218506   1.50462e-15
    0.0405405       287.908       288.268      0.272436       3.92337       1.24844             0       2.93224       6.65019             0       64.1486       10.7514             0       43.7798             0             0      0.188291   8.34543e-16      0.181345        102784        103187        219019   1.52904e-15
     0.041041       287.905       288.271      0.264685       3.98765       1.32962             0        2.5543       6.47891             0       65.4378       8.71483             0       40.8253             0             0      0.188142   8.47774e-16      0.181992        102780        103191        219535   1.55328e-15
    0.0415415       287.896       288.275      0.254965       4.11549        1.4316             0       2.16884       6.25428             0       66.0688       6.61633             0       37.7345             0             0      0.188049   8.59925e-16      0.182396        102777        103196        220080   1.57554e-15
     0.042042       287.886        288.28      0.245229       4.24671       1.53513             0       1.78436       6.02521             0       66.6259       4.52172             0       34.6359             0             0      0.187958   8.72256e-16      0.182789        102774        103201        220624   1.59814e-15
    0.0425425       287.867       288.287      0.235321       4.41492       1.65542             0        1.4107       5.74765             0       66.3764       2.46949             0        31.453             0             0      0.187897   8.86541e-16      0.183057        102772        103206        221170   1.62431e-15
     0.043043       287.848       288.294      0.225339       4.58421       1.77613             0        1.0376       5.46667             0       66.0923      0.435445             0       28.2728             0             0      0.187839   9.01064e-16      0.183311        102769        103210        221719   1.65092e-15
    0.0435435       287.822       288.306       0.21458       4.76497       1.90122             0      0.670496        5.1493             0       65.4404      -1.40527             0       25.1217             0             0      0.187813   9.18114e-16       0.18342        102767        103215        222300   1.68216e-15
     0.044044       287.797       288.318       0.20379       4.94624       2.02242             0       0.30512       4.82878             0       64.7539      -3.20248             0       21.9868             0             0      0.187783   9.35619e-16      0.183553        102766        103220        222883   1.71423e-15
    0.0445445       287.774       288.335      0.192681        5.1327       2.10325             0    -0.0423415       4.47561             0        63.708      -4.54881             0       19.0197             0             0      0.187696   9.57839e-16      0.183932        102764        103224        223485   1.75494e-15
     0.045045       287.753       288.352      0.181886       5.32491       2.17214             0     -0.384798       4.11855             0       62.5834      -5.82414             0       16.0778             0             0        0.1876   9.80375e-16      0.184346        102763        103229        224088   1.79623e-15
    0.0455455       287.743       288.366      0.174265       5.57532       2.12027             0     -0.676649        3.7222             0       60.6632      -6.38152             0       13.3909             0             0      0.187422    1.0061e-15      0.185121        102763        103233        224708   1.84336e-15