#           y             T         TMean   TPrime2Mean           U_x           U_y           U_z       UMean_x       UMean_y       UMean_z UPrime2Mea... UPrime2Mea... UPrime2Mea... UPrime2Mea... UPrime2Mea... UPrime2Mea...            O2           H2O          C3H8             p         pMean   pPrime2Mean           CO2
            0        288.37       288.014     0.0629042        21.238             0             0       22.5506             0             0       5.65285             0             0             0             0             0          0.23   3.29746e-21   2.94928e-08        103026        103175        250252   6.04156e-21
  0.000500501        288.37       288.014     0.0629142       21.2335     -0.138343             0       22.5523    0.00923472             0       5.66707      0.136417             0     0.0428732             0             0          0.23   1.37818e-20   3.52782e-07        103025        103174        249789   2.52508e-20
     0.001001        288.37       288.014     0.0629239       21.2289     -0.276618             0        22.554     0.0184763             0       5.68143       0.27284             0     0.0858551             0             0          0.23   2.46506e-20   6.86692e-07        103025        103174        249324   4.51645e-20
    0.0015015       288.369       288.014      0.062788       21.1689     -0.380389             0       22.5497     0.0311493             0       5.76988      0.412639             0      0.183108             0             0      0.229999   2.27397e-19   6.32086e-06        103024        103174        248039   4.16634e-19
     0.002002       288.369       288.014     0.0626519       21.1089      -0.48411             0       22.5454      0.043803             0       5.85861      0.552575             0      0.280824             0             0      0.229997   4.54181e-19   1.22287e-05        103022        103175        246751   8.32145e-19
    0.0025025       288.369       288.014     0.0624483       21.0399     -0.575041             0       22.5452     0.0516635             0       6.01559      0.726782             0      0.493568             0             0       0.22998   6.66629e-18   8.62829e-05        103019        103175        244749   1.22139e-17
     0.003003        288.37       288.014     0.0622451       20.9703     -0.665133             0       22.5449     0.0596021             0       6.17409      0.901022             0      0.707076             0             0      0.229962   1.31488e-17   0.000163563        103016        103175        242744    2.4091e-17
    0.0035035       288.389       288.014     0.0620982       20.8123     -0.616151             0        22.534     0.0804903             0       6.58401       1.08062             0       1.04706             0             0      0.229822   6.44243e-17   0.000775198        103011        103174        240162   1.18037e-16
     0.004004       288.409       288.014     0.0619902       20.6548     -0.566848             0       22.5232      0.101289             0       6.99643       1.26161             0       1.39088             0             0      0.229677   1.20253e-16    0.00140601        103006        103174        237576   2.20326e-16
    0.0045045       288.585        288.02     0.0667068       20.5594     -0.477643             0       22.5235      0.110974             0       7.71954       1.61579             0       2.20932             0             0      0.228985   7.40701e-16    0.00441441        102999        103173        234597    1.3571e-15
   0.00500501        288.77       288.025     0.0732892       20.4619     -0.384933             0       22.5233      0.120896             0       8.45164        1.9694             0       3.03545             0             0      0.228277   1.41471e-15    0.00749167        102993        103173        231617   2.59201e-15
   0.00550551       289.811       288.066      0.264584       20.1501     0.0547592             0       22.4805      0.154234             0       10.0732       2.26613             0       4.62351             0             0      0.226001   7.39114e-15     0.0173863        102986        103171        228605    1.3542e-14
   0.00600601       290.875       288.107      0.480606       19.8452       0.49162             0       22.4376      0.186928             0       11.6918       2.57008             0       6.24113             0             0      0.223715    1.3781e-14     0.0273269        102979        103170        225599   2.52494e-14
   0.00650651        293.77       288.244       2.73243       20.1071      0.695418             0       22.3956      0.166606             0       13.0597       3.46818             0       10.2931             0             0      0.220559   5.42129e-14     0.0410467        102967        103166        223027   9.93281e-14
   0.00700701       296.732       288.382       5.12469       20.3677      0.905068             0       22.3541      0.147258             0       14.3993       4.36165             0       14.3673             0             0      0.217397   1.02069e-13     0.0547939        102954        103162        220462    1.8701e-13
   0.00750751       304.316       288.671       17.4079       20.5412       1.52687             0       22.3488      0.196461             0       13.7491       4.92871             0       20.0056             0             0      0.213792   6.72843e-13     0.0704678        102941        103155        218416   1.23277e-12
   0.00800801       312.274       288.966       30.3775       20.6953       2.14873             0       22.3332      0.243705             0       13.0844       5.45547             0       25.6544             0             0      0.210185   1.50013e-12     0.0861504        102927        103149        216370   2.74852e-12
   0.00850851        343.21       289.625       85.5546       19.6611       2.77378             0       21.6856       0.17046             0       11.5243       3.50457             0       31.9443             0             0      0.206455   1.81031e-11       0.10237        102913        103141        214314   3.31683e-11
   0.00900901       374.076       290.282       140.817       18.6553       3.37523             0       21.0361     0.0975727             0       9.96391       1.53782             0       38.1907             0             0      0.202763   3.47144e-11       0.11842        102898        103133        212233   6.36033e-11
   0.00950951       401.156       290.868       200.754       19.1978        2.6894             0       20.2806     0.0442237             0       8.38532      -1.29353             0       42.0616             0             0      0.201193   5.17811e-11      0.125249        102887        103129        208807   9.48727e-11
      0.01001       427.758       291.447       260.143       19.7391       2.01215             0       19.5189   -0.00578178             0       6.83282      -4.09414             0       45.8297             0             0      0.199559   6.87791e-11      0.132354        102877        103125        205354   1.26016e-10
    0.0105105        430.94       291.641       292.708       20.2239        1.7556             0       18.4487      0.108046             0       6.55847      -5.38874             0       44.5556             0             0      0.194819   8.24082e-11      0.152959        102874        103131        200551   1.50987e-10
     0.011011       434.072       291.832        325.16        20.676       1.50383             0       17.3633      0.221139             0       6.30619      -6.64671             0       43.1981             0             0      0.189854    9.6086e-11      0.174548        102870        103136        195731   1.76047e-10
    0.0115115       434.983       291.894        352.51        19.672        1.4646             0        15.596      0.301595             0       7.03474      -6.27644             0       38.1344             0             0       0.17483   1.11931e-10      0.239868        102861        103145        190197   2.05078e-10
     0.012012       435.867       291.954       379.703       18.6622       1.41738             0       13.8312      0.380117             0       7.74265      -5.87938             0       33.0309             0             0      0.159606   1.27933e-10       0.30606        102852        103154        184676   2.34397e-10
    0.0125125       435.685       291.964       400.508       17.4179       1.04525             0       12.1725      0.380034             0       7.61151      -4.39292             0       26.3066             0             0      0.136236   1.50343e-10      0.407669        102843        103162        179708   2.75456e-10
     0.013013       435.407       291.971       420.231       16.1779      0.684133             0       10.5397      0.377986             0        7.4648      -2.91443             0       19.6581             0             0      0.112892    1.7161e-10      0.509164        102833        103169        174779   3.14421e-10
    0.0135135       431.529       291.864       399.471       15.0961      0.735494             0       9.88119      0.302304             0       6.73519      -1.73446             0        15.847             0             0      0.090531   1.50073e-10      0.606387        102823        103172        171324   2.74963e-10
     0.014014        427.51       291.755        377.87       14.0458      0.784675             0       9.24812      0.229236             0       6.00636     -0.580441             0        12.095             0             0     0.0683977   1.27716e-10      0.702619        102813        103176        167895   2.33999e-10
    0.0145145       418.628       291.544         327.1       14.0894      0.758185             0       9.49876      0.246961             0       5.30436     -0.327508             0       10.3957             0             0     0.0541788    7.6841e-11       0.76444        102803        103177        165358   1.40787e-10
     0.015015       409.914       291.339       277.497       14.1339      0.738882             0       9.74621      0.263176             0       4.62191    -0.0815712             0       8.73159             0             0     0.0403107   2.72421e-11      0.824736        102793        103179        162854   4.99126e-11
    0.0155155       406.667       291.312       265.632       14.2087      0.951951             0       9.89076      0.230596             0       4.57138    -0.0618468             0       8.20671             0             0     0.0377882   1.89023e-11      0.835704        102782        103179        161392   3.46326e-11
     0.016016         403.1       291.269         252.5       14.2498        1.1789             0       10.0536      0.195594             0       4.60067    -0.0718581             0       7.72053             0             0     0.0356715   1.07893e-11      0.844907        102771        103178        159949    1.9768e-11
    0.0165165       389.844       290.758       201.038       13.2716       1.82584             0       10.7698     0.0873204             0       7.04422     -0.981374             0       8.40501             0             0     0.0458304   9.53603e-12      0.800737        102758        103178        159096   1.74718e-11
     0.017017        376.18       290.238       149.054       12.3452       2.45199             0       11.5523    -0.0255708             0       9.50601      -1.90422             0       9.07709             0             0      0.056365   8.20411e-12      0.754935        102746        103177        158241   1.50315e-11
    0.0175175       350.934       289.467       82.2114       12.8909       2.48777             0       14.2158     -0.269653             0       12.4861       -3.2058             0       9.39681             0             0     0.0775708   4.63782e-12      0.662735        102736        103177        157341   8.49735e-12
     0.018018       326.095       288.715       17.4672       13.5125       2.52753             0       16.8719     -0.505686             0       15.3941      -4.47712             0       9.71856             0             0     0.0989851   1.18011e-12       0.56963        102726        103177        156438   2.16218e-12
    0.0185185        312.15        288.45       8.91424       16.1672       2.67398             0       19.3268     -0.526171             0       16.3712      -4.93785             0       10.0946             0             0      0.125982    6.2974e-13      0.452251        102714        103176        155446    1.1538e-12
     0.019019       298.577       288.193      0.675265        18.805       2.81487             0       21.7142     -0.544132             0        17.305      -5.37496             0        10.451             0             0      0.152794   9.85494e-14      0.335677        102702        103175        154482   1.80561e-13
    0.0195195       294.417        288.12      0.384632       21.0137       2.81483             0       22.3921     -0.498176             0       17.1421      -5.21367             0       10.3076             0             0      0.174917   5.28402e-14      0.239489        102694        103175        154242   9.68131e-14
      0.02002       290.386       288.049      0.104801       23.1692       2.80803             0       23.0532     -0.453212             0       16.9617      -5.04913             0       10.1616             0             0      0.196628   8.79441e-15      0.145095        102685        103176        154021    1.6113e-14
    0.0205205        289.44       288.027     0.0841979       24.0474       2.63887             0       23.3134     -0.432061             0       16.3607      -4.80629             0       9.95147             0             0      0.208439   4.67032e-15     0.0937446        102679        103176        154246   8.55689e-15
     0.021021       288.528       288.006     0.0642762       24.8888       2.47962             0       23.5585     -0.406914             0       15.7684      -4.54635             0       9.78678             0             0      0.219919    7.0547e-16     0.0438313        102673        103176        154469   1.29255e-15
    0.0215215       288.388       288.007     0.0598844       24.8896       2.54636             0       23.4581     -0.290635             0       15.3764      -3.89623             0       10.6585             0             0      0.223858   3.72983e-16     0.0267039        102667        103174        154631   6.83375e-16
     0.022022       288.254       288.009     0.0555488       24.8818       2.61946             0       23.3342     -0.173705             0       14.9997      -3.19593             0       11.5637             0             0      0.227661   5.44219e-17     0.0101717        102660        103173        154800   9.97111e-17
    0.0225225       288.244        288.03     0.0524352        24.688       2.83055             0       22.6988    -0.0426472             0        14.956      -1.40524             0       13.1959             0             0      0.228489    3.8428e-17    0.00657048        102653        103170        155134   7.04073e-17
     0.023023       288.236       288.053      0.049387       24.4727        3.0505             0       22.0112     0.0951131             0       15.0033      0.449355             0       14.8385             0             0      0.229279   2.38054e-17    0.00313427        102646        103167        155462   4.36159e-17
    0.0235235        288.24       288.096     0.0476969       23.8099        3.4539             0       20.2401      0.371869             0       16.9371       3.62932             0       16.6961             0             0      0.229282   3.76225e-17    0.00312043        102637        103163        155645   6.89315e-17
     0.024024       288.245       288.141     0.0463432       23.0481       3.84903             0       18.4046      0.642874             0       19.1949       6.74588             0       18.6013             0             0      0.229275   5.18358e-17    0.00315305        102629        103159        155849   9.49728e-17
    0.0245245       288.248       288.198     0.0516601       20.3225       4.08002             0       15.2938      0.799812             0       27.8773       8.60485             0         21.45             0             0      0.229055   7.39052e-17     0.0041073        102620        103154        156459   1.35408e-16
     0.025025        288.25       288.256     0.0572464       17.4858       4.30663             0       12.1938      0.942194             0       36.8692       10.2808             0       24.3619             0             0      0.228827   9.68172e-17    0.00509839        102610        103149        157067   1.77387e-16
    0.0255255       288.232       288.305     0.0679528       12.5382       4.45021             0       9.29902       0.80802             0       51.7401       8.47914             0       28.4735             0             0      0.228438   1.35738e-16    0.00678939        102602        103142        157656   2.48696e-16
     0.026026       288.214       288.354      0.078532       7.62487       4.58433             0       6.46574      0.666591             0        66.369       6.60807             0       32.5784             0             0      0.227994    1.7871e-16    0.00871987        102594        103135        158242    3.2743e-16
    0.0265265       288.203       288.382     0.0867922       3.33828       4.54626             0       4.75416      0.392904             0       76.5864       3.47115             0       36.5627             0             0      0.226546   2.95552e-16     0.0150162        102589        103128        158777   5.41507e-16
     0.027027       288.195        288.41     0.0947693     -0.824903       4.49078             0       3.07942      0.114043             0       86.2016      0.326767             0       40.4994             0             0      0.224968   4.16608e-16     0.0218802        102585        103120        159344   7.63303e-16
    0.0275275       288.249       288.428     0.0977861      -2.82622       4.13045             0       2.04992     -0.255432             0       85.2667      -2.94856             0       43.6015             0             0      0.221101   6.11475e-16     0.0386893        102585        103112        160496   1.12034e-15
     0.028028       288.303       288.446      0.100624      -4.74775       3.77157             0       1.03871     -0.626848             0        83.923      -6.20482             0       46.6095             0             0      0.217181   8.03318e-16     0.0557327        102584        103104        161689   1.47183e-15
    0.0285285       288.348       288.459      0.100445      -5.32446       3.43697             0      0.335672      -1.03096             0       75.6855      -9.13957             0       48.0314             0             0      0.212353   9.44209e-16     0.0767263        102583        103097        163584   1.72997e-15
     0.029029       288.389       288.472      0.100142      -5.87593       3.10497             0     -0.362396      -1.43329             0       67.3232      -11.9723             0       49.3544             0             0      0.207628   1.07939e-15     0.0972697        102581        103090        165508   1.97765e-15
    0.0295295       288.358       288.481     0.0978363      -6.01733       2.81512             0     -0.979678      -1.80655             0       56.9334      -13.1481             0       49.0739             0             0      0.204585   1.12191e-15        0.1105        102579        103084        167903   2.05554e-15
      0.03003       288.327        288.49     0.0954967      -6.15047       2.53215             0      -1.59311      -2.17656             0       46.6423      -14.2025             0       48.7172             0             0      0.201663   1.16231e-15      0.123204        102576        103079        170304   2.12956e-15
    0.0305305       288.282       288.497     0.0926306      -6.15416        2.3569             0      -2.14627      -2.49562             0       37.8975      -13.3539             0       47.1667             0             0      0.200639   1.16964e-15      0.127655        102573        103076        172792     2.143e-15
     0.031031       288.237       288.504     0.0898663      -6.15336       2.18551             0      -2.69384       -2.8087             0       29.4378      -12.4215             0       45.5628             0             0      0.199675   1.17657e-15      0.131848        102570        103074        175274    2.1557e-15
    0.0315315        288.21       288.507     0.0886437      -6.08476       2.07266             0      -3.15697      -3.03129             0        25.289      -10.2225             0       43.1492             0             0       0.19961   1.17746e-15      0.132133        102566        103074        177659   2.15733e-15
     0.032032       288.185       288.511     0.0875261      -6.00771       1.96332             0      -3.60956      -3.24801             0       21.4151       -8.0152             0       40.7096             0             0      0.199559   1.17848e-15      0.132352        102562        103074        180052    2.1592e-15
    0.0325325       288.171       288.512     0.0879459      -5.80718       1.90531             0      -3.90804      -3.37875             0       21.5598      -5.68566             0       37.8896             0             0      0.199731   1.18129e-15      0.131603        102557        103077        182571   2.16434e-15
     0.033033       288.159       288.512     0.0884014      -5.59923       1.84555             0      -4.19421      -3.50406             0       21.8293      -3.39516             0       35.0671             0             0      0.199917    1.1843e-15      0.130795        102553        103080        185131   2.16986e-15
    0.0335335       288.159       288.512     0.0893616      -5.28631       1.76117             0      -4.30623      -3.55231             0       23.8639      -1.65714             0       32.2093             0             0      0.200298   1.19022e-15      0.129141        102548        103085        188278   2.18071e-15
     0.034034        288.16       288.512     0.0902996      -4.96633       1.67004             0      -4.40712      -3.59703             0       25.8886     0.0397652             0         29.37             0             0      0.200699    1.1963e-15      0.127396        102543        103089        191463   2.19185e-15
    0.0345345       288.174       288.512     0.0909325      -4.54959       1.48644             0      -4.35553      -3.59345             0       27.7776         1.173             0       26.7834             0             0      0.201389   1.20451e-15      0.124397        102538        103094        195164   2.20689e-15
     0.035035       288.188       288.512      0.091484      -4.13882       1.29109             0      -4.29577      -3.58673             0       29.5819       2.27374             0         24.22             0             0       0.20216    1.2121e-15      0.121044        102533        103099        198879   2.22079e-15
    0.0355355       288.215       288.515     0.0909557      -3.80739      0.939479             0      -4.12755      -3.53832             0       30.2597       2.94293             0       21.9666             0             0       0.20401   1.21142e-15      0.112999        102528        103103        202768   2.21955e-15
     0.036036       288.243       288.517      0.090302      -3.48518      0.577152             0      -3.95244      -3.48667             0       30.8228       3.57105             0       19.7374             0             0      0.205974   1.20918e-15      0.104462        102522        103107        206638   2.21544e-15
    0.0365365       288.266       288.523     0.0880337      -3.28185     0.0766855             0      -3.68863      -3.39326             0       29.9064       3.66971             0       17.8196             0             0      0.209395   1.18679e-15     0.0895854        102517        103110        210251   2.17441e-15
     0.037037       288.288       288.528     0.0857104      -3.07791     -0.420522             0      -3.42037      -3.29631             0       28.8971       3.72885             0       15.9311             0             0      0.212761   1.16385e-15     0.0749524        102512        103114        213826   2.13238e-15
    0.0375375       288.287       288.537     0.0826992      -2.86633     -0.876948             0       -3.0964      -3.15499             0       26.7267       3.29351             0       14.4083             0             0      0.215425   1.13409e-15     0.0633685        102506        103116        216922   2.07786e-15
     0.038038       288.285       288.545     0.0796863      -2.63654      -1.32063             0      -2.77049      -3.01115             0       24.5446       2.84264             0       12.9189             0             0      0.217952   1.10489e-15     0.0523826        102500        103118        219974   2.02436e-15
    0.0385385       288.269       288.554     0.0766512      -2.18536      -1.60942             0      -2.42099      -2.83662             0        22.221       2.20293             0       11.8363             0             0      0.218807   1.08251e-15     0.0486665        102495        103120        222489   1.98336e-15
     0.039039       288.253       288.564     0.0736625      -1.71677      -1.88628             0      -2.07145      -2.66085             0       19.9492       1.56929             0        10.779             0             0      0.219612   1.06078e-15     0.0451634        102490        103122        224966   1.94354e-15
    0.0395395       288.233       288.571     0.0712219      -1.04244      -2.02214             0      -1.72151      -2.47024             0       18.2901       1.00724             0       10.0209             0             0      0.219839   1.04673e-15     0.0441773        102486        103123        226993    1.9178e-15
      0.04004       288.213       288.579     0.0688999     -0.358981      -2.14949             0      -1.37136      -2.27973             0       16.6836      0.454597             0       9.27328             0             0      0.220052   1.03332e-15     0.0432502        102483        103124        228985   1.89324e-15
    0.0405405       288.191       288.584     0.0679419       0.42955      -2.17896             0      -1.01892      -2.09022             0       15.6818     0.0100339             0        8.6467             0             0       0.22011   1.02734e-15     0.0430001        102481        103125        230585   1.88228e-15
     0.041041       288.168       288.589     0.0670562       1.22051      -2.20234             0     -0.665124      -1.90121             0       14.6975     -0.422842             0       8.02174             0             0      0.220162   1.02147e-15     0.0427745        102480        103126        232156   1.87152e-15
    0.0415415       288.145       288.594     0.0669797       2.03862      -2.15766             0     -0.296071      -1.71774             0       13.9089     -0.724876             0       7.41493             0             0      0.220151   1.01675e-15     0.0428226        102481        103127        233417   1.86287e-15
     0.042042       288.121       288.598     0.0669318       2.85513      -2.10985             0      0.074249      -1.53525             0        13.137       -1.0105             0       6.80703             0             0      0.220131    1.0117e-15     0.0429101        102482        103129        234649   1.85363e-15
    0.0425425       288.103       288.603     0.0671958       3.65416      -2.02795             0      0.458375      -1.36349             0       12.5478      -1.11721             0       6.18723             0             0      0.220012   1.00316e-15     0.0434268        102484        103130        235579   1.83798e-15
     0.043043       288.085       288.608     0.0674617       4.44673      -1.94248             0       0.84151      -1.19321             0        12.006      -1.20764             0       5.56778             0             0      0.219885   9.94263e-16     0.0439795        102487        103132        236484   1.82168e-15
    0.0435435       288.078       288.612      0.067747       5.17063      -1.81906             0       1.21411      -1.03875             0        11.968      -1.12506             0       4.95212             0             0       0.21967   9.81506e-16     0.0449147        102491        103133        237130    1.7983e-15
     0.044044       288.072       288.616     0.0679634       5.88475      -1.69419             0       1.58461     -0.885933             0       11.9831      -1.03177             0       4.34187             0             0      0.219454   9.68933e-16     0.0458513        102495        103135        237760   1.77526e-15
    0.0445445       288.073       288.619     0.0674667        6.4974      -1.55428             0       1.93328     -0.750231             0       12.5487     -0.827446             0       3.78772             0             0      0.219235   9.58267e-16     0.0468038        102499        103137        238220   1.75572e-15
     0.045045       288.074       288.621     0.0668019       7.09716       -1.4136             0       2.27734     -0.617075             0       13.1463     -0.620836             0       3.23984             0             0      0.219019   9.48142e-16     0.0477443        102504        103139        238674   1.73717e-15
    0.0455455       288.079       288.623     0.0644382       7.56648      -1.26516             0       2.57477      -0.50966             0       14.0674      -0.39112             0       2.75527             0             0       0.21883   9.43488e-16     0.0485636        102508        103141        239073   1.72865e-15