#           y             T         TMean   TPrime2Mean           U_x           U_y           U_z       UMean_x       UMean_y       UMean_z UPrime2Mea... UPrime2Mea... UPrime2Mea... UPrime2Mea... UPrime2Mea... UPrime2Mea...            O2           H2O          C3H8             p         pMean   pPrime2Mean           CO2
            0       287.728       288.351      0.231386        18.365             0             0       13.4959             0             0       25.3217             0             0             0             0             0      0.229838   3.33369e-17   0.000704317        102531        103232        233353   6.10794e-17
  0.000500501       287.724       288.356      0.232704       18.3713     0.0176535             0       13.5088    0.00844877             0       25.3365    -0.0327566             0     0.0703599             0             0      0.229804   3.64576e-17   0.000853538        102531        103232        233361   6.67972e-17
     0.001001        287.72       288.362      0.234027       18.3777     0.0352973             0       13.5216     0.0168995             0       25.3515    -0.0654986             0      0.140903             0             0      0.229769   3.95912e-17    0.00100361        102531        103232        233370   7.25385e-17
    0.0015015       287.712       288.374      0.237722       18.3852     0.0480751             0       13.5502     0.0263112             0       25.4649    -0.0909356             0      0.302849             0             0      0.229637   4.91113e-17     0.0015772        102531        103231        233364   8.99811e-17
     0.002002       287.703       288.385      0.241432       18.3929     0.0608111             0       13.5789     0.0357173             0        25.579     -0.116463             0      0.465236             0             0      0.229505   5.86564e-17    0.00215384        102531        103231        233358   1.07469e-16
    0.0025025       287.675       288.395      0.248887       18.4093     0.0631815             0       13.6186      0.043728             0       25.8847     -0.164537             0      0.737711             0             0      0.229198   7.44276e-17     0.0034886        102531        103231        233315   1.36365e-16
     0.003003       287.646       288.405       0.25634       18.4261      0.065329             0       13.6584     0.0517105             0       26.1918     -0.213052             0       1.01097             0             0      0.228888   9.02454e-17    0.00483412        102531        103231        233272   1.65346e-16
    0.0035035       287.567       288.412      0.263483       18.4914     0.0305547             0       13.7168     0.0550066             0       26.7091      -0.33451             0       1.41381             0             0      0.228169   1.13787e-16    0.00796137        102531        103230        233161    2.0848e-16
     0.004004       287.488       288.418      0.270536        18.557   -0.00486094             0       13.7752     0.0582646             0       27.2272     -0.456707             0       1.81773             0             0      0.227441   1.37436e-16     0.0111272        102531        103230        233049   2.51809e-16
    0.0045045       287.392       288.424      0.266557        18.654     -0.119802             0       13.8405     0.0568024             0       27.8381     -0.670482             0       2.35409             0             0      0.225613   1.74293e-16     0.0190753        102531        103229        232866   3.19337e-16
   0.00500501       287.297       288.431      0.262481       18.7505     -0.235454             0       13.9055     0.0553334             0       28.4467     -0.884581             0       2.89137             0             0      0.223764    2.1143e-16     0.0271117        102531        103228        232683   3.87379e-16
   0.00550551        287.28        288.44      0.248819       18.8074     -0.421589             0       13.9431     0.0531978             0       28.8309      -1.13074             0        3.5194             0             0      0.219903   2.76307e-16     0.0438997        102530        103228        232469   5.06246e-16
   0.00600601       287.265       288.449      0.235168       18.8631     -0.607753             0       13.9799     0.0511121             0       29.2074      -1.37593             0        4.1476             0             0      0.216025   3.41636e-16     0.0607618        102530        103227        232256   6.25941e-16
   0.00650651       287.344       288.458      0.222352       18.8152     -0.796312             0       13.9544      0.053129             0       28.9573      -1.54161             0       4.78971             0             0      0.210745   4.44139e-16      0.083719        102529        103226        232001   8.13745e-16
   0.00700701       287.422       288.468      0.209595       18.7649      -0.98423             0       13.9278     0.0552295             0       28.6963      -1.70533             0        5.4312             0             0      0.205486   5.46491e-16      0.106583        102529        103225        231746   1.00127e-15
   0.00750751       287.496       288.477      0.200941       18.5475      -1.12704             0       13.8278     0.0632189             0        27.665      -1.73106             0       6.02881             0             0      0.201743   6.38223e-16      0.122856        102528        103224        231457   1.16934e-15
   0.00800801        287.57       288.487      0.192329       18.3274      -1.26883             0       13.7269     0.0712585             0        26.626       -1.7555             0       6.62574             0             0      0.198032   7.29474e-16      0.138989        102527        103223        231167   1.33653e-15
   0.00850851       287.614       288.497      0.186215       17.9452      -1.34854             0       13.5741      0.082384             0       25.1104      -1.70054             0        7.1817             0             0      0.196313   7.91082e-16      0.146467        102526        103222        230865   1.44941e-15
   0.00900901       287.657       288.507      0.180129       17.5627       -1.4273             0       13.4208     0.0934879             0       23.5935      -1.64585             0       7.73738             0             0      0.194604   8.52606e-16      0.153897        102525        103221        230563   1.56213e-15
   0.00950951       287.706       288.519      0.175531       17.1649      -1.45447             0       13.2458      0.103412             0       22.0026      -1.60648             0       8.27855             0             0      0.193495   9.09479e-16      0.158717        102524        103221        230255   1.66634e-15
      0.01001       287.755       288.531      0.170969       16.7719      -1.48218             0       13.0705      0.113302             0       20.4137      -1.56769             0       8.81929             0             0        0.1924   9.66004e-16      0.163478        102523        103220        229947    1.7699e-15
    0.0105105       287.804       288.544      0.168107       16.6125      -1.53629             0       12.8863      0.121554             0       18.9158       -1.5572             0       9.33868             0             0      0.191965   1.00542e-15      0.165369        102522        103219        229633   1.84213e-15
     0.011011       287.853       288.557      0.165325       16.4585      -1.59213             0       12.7016      0.129844             0       17.4187      -1.54611             0       9.85676             0             0      0.191541   1.04446e-15      0.167213        102521        103218        229319   1.91364e-15
    0.0115115       287.902       288.568       0.16605        16.549      -1.72469             0       12.5004      0.139848             0       15.9526      -1.50821             0        10.316             0             0      0.191593   1.06613e-15      0.166986        102520        103217        228998   1.95335e-15
     0.012012       287.951        288.58      0.166826        16.638      -1.85703             0       12.2987      0.149904             0       14.4869      -1.46932             0       10.7735             0             0      0.191647   1.08754e-15      0.166753        102519        103216        228677   1.99258e-15
    0.0125125       287.993        288.59      0.169683       16.6599      -1.98018             0       12.0768      0.162082             0       13.0344      -1.39013             0       11.1597             0             0      0.191771   1.09832e-15      0.166214        102518        103215        228387   2.01233e-15
     0.013013       288.034         288.6      0.172483       16.6757      -2.10107             0       11.8547      0.174232             0       11.5868        -1.311             0       11.5447             0             0      0.191894   1.10885e-15       0.16568        102517        103215        228096   2.03163e-15
    0.0135135       288.054       288.609      0.173179       16.4624      -2.13754             0       11.6282      0.185317             0       10.3201      -1.23373             0        11.881             0             0      0.191972   1.11026e-15      0.165339        102516        103214        227822    2.0342e-15
     0.014014       288.074       288.618      0.173785       16.2452      -2.17166             0       11.4019      0.196374             0       9.06367      -1.15654             0       12.2151             0             0      0.192045   1.11148e-15      0.165021        102515        103213        227548   2.03643e-15
    0.0145145        288.08       288.626      0.171316       15.8955      -2.12409             0       11.1815      0.206447             0       8.16121      -1.08163             0       12.4714             0             0      0.191932   1.10619e-15      0.165511        102514        103213        227292   2.02675e-15
     0.015015       288.087       288.634      0.168804       15.5449      -2.07463             0       10.9611      0.216657             0       7.27122      -1.00564             0       12.7222             0             0      0.191809   1.10069e-15       0.16605        102513        103212        227037   2.01666e-15
    0.0155155       288.091       288.641      0.164884       15.1699       -1.9638             0       10.7359      0.231239             0       6.78479     -0.894747             0       12.7985             0             0      0.191322   1.08797e-15      0.168164        102512        103212        226818   1.99336e-15
     0.016016       288.095       288.649      0.161005       14.7968      -1.85217             0       10.5104      0.246032             0       6.31332     -0.784383             0       12.8678             0             0      0.190839   1.07523e-15      0.170267        102511        103212        226600   1.97001e-15
    0.0165165       288.076       288.654      0.158321       14.4823      -1.71641             0        10.273      0.267194             0       6.29469     -0.690068             0       12.7299             0             0      0.190439   1.06164e-15      0.172003        102510        103212        226411   1.94513e-15
     0.017017       288.057        288.66      0.155722       14.1721      -1.58097             0       10.0356      0.288407             0       6.29406     -0.600872             0       12.5875             0             0       0.19005   1.04819e-15      0.173697        102509        103212        226221   1.92047e-15
    0.0175175       288.025       288.663      0.155524       13.9872      -1.45456             0       9.79697      0.311054             0       6.80475     -0.657101             0       12.3174             0             0      0.189935   1.03834e-15      0.174197        102508        103212        226033   1.90243e-15
     0.018018       287.993       288.666      0.155422       13.8057      -1.32819             0       9.55859      0.333598             0       7.33205     -0.720596             0       12.0452             0             0      0.189824   1.02862e-15      0.174678        102507        103212        225844   1.88462e-15
    0.0185185       287.971       288.666      0.157891       13.7146       -1.2029             0       9.32719      0.353349             0       8.30431      -0.97863             0       11.7184             0             0      0.189825   1.02223e-15      0.174672        102506        103212        225655   1.87291e-15
     0.019019       287.949       288.667      0.160447        13.625      -1.07722             0       9.09609      0.373021             0       9.28697      -1.24113             0       11.3901             0             0      0.189835   1.01604e-15      0.174633        102505        103212        225466   1.86158e-15
    0.0195195       287.931       288.666      0.165219       13.5745     -0.942042             0       8.87257      0.390658             0       10.5329      -1.61661             0        11.022             0             0      0.190042   1.01513e-15      0.173731        102505        103212        225275   1.85991e-15
      0.02002       287.913       288.665      0.170076       13.5249     -0.806667             0       8.64932      0.408366             0       11.7822      -1.99018             0       10.6525             0             0      0.190256   1.01445e-15        0.1728        102504        103213        225083   1.85865e-15
    0.0205205       287.904       288.664      0.176987       13.4953     -0.666666             0       8.43243      0.427744             0       13.1096      -2.31783             0       10.2499             0             0      0.190635    1.0193e-15      0.171153        102503        103213        224849   1.86755e-15
     0.021021       287.896       288.663      0.184029       13.4643     -0.526318             0        8.2162      0.447448             0       14.4295      -2.63853             0        9.8458             0             0      0.191014   1.02426e-15      0.169503        102502        103213        224613   1.87664e-15
    0.0215215       287.895       288.663      0.194041        13.404      -0.37804             0       8.01502      0.474584             0       15.5791      -2.80055             0       9.40609             0             0      0.191405    1.0317e-15      0.167803        102502        103213        224361   1.89026e-15
     0.022022       287.894       288.663      0.204222       13.3407     -0.229696             0       7.81533      0.501799             0       16.7085      -2.95127             0       8.96669             0             0      0.191789   1.03931e-15      0.166136        102501        103214        224110   1.90421e-15
    0.0225225       287.898       288.666      0.218055       13.2148    -0.0799164             0       7.64794      0.530729             0        17.403      -2.85629             0       8.53395             0             0      0.192012   1.05075e-15      0.165167        102501        103214        223886   1.92516e-15
     0.023023       287.901       288.668      0.231895       13.0862     0.0701928             0       7.48183      0.559949             0       18.0829      -2.75431             0       8.10453             0             0      0.192231   1.06296e-15      0.164211        102500        103214        223664   1.94754e-15
    0.0235235       287.889       288.669      0.245877       12.9018      0.227133             0       7.34236      0.595177             0       18.4615       -2.5071             0       7.74383             0             0      0.192391   1.09133e-15      0.163517        102499        103215        223505   1.99951e-15
     0.024024       287.878        288.67      0.259694       12.7154      0.385004             0       7.20372      0.630733             0       18.8341      -2.25557             0       7.38713             0             0      0.192547   1.12039e-15      0.162839        102498        103215        223350   2.05276e-15
    0.0245245       287.854       288.671      0.270214       12.4895      0.561328             0       7.08138      0.672822             0       19.0868      -1.91854             0       7.10962             0             0      0.192631   1.16328e-15      0.162472        102498        103215        223271   2.13134e-15
     0.025025       287.832       288.673      0.280588       12.2621      0.738264             0       6.95953      0.715023             0       19.3408      -1.57731             0       6.83599             0             0      0.192693   1.20633e-15      0.162206        102497        103215        223198   2.21023e-15
    0.0255255       287.825       288.678      0.288202       12.0077      0.926815             0       6.84691      0.759384             0       19.6207      -1.15608             0       6.63613             0             0      0.192316   1.25262e-15      0.163844        102496        103214        223221   2.29503e-15
     0.026026        287.82       288.684      0.295626       11.7549       1.11584             0       6.73424      0.804263             0       19.9197     -0.741799             0       6.44239             0             0      0.191917   1.29913e-15      0.165576        102495        103214        223251   2.38024e-15
    0.0265265       287.834       288.691      0.299589       11.5333       1.31344             0       6.62063      0.858592             0       20.5667       -0.4543             0       6.36024             0             0      0.191125   1.34972e-15      0.169021        102494        103214        223396   2.47293e-15
     0.027027       287.848       288.698      0.303226       11.3204       1.51232             0       6.50769      0.913081             0       21.2272     -0.177735             0       6.28663             0             0      0.190334    1.3999e-15      0.172463        102492        103214        223546   2.56489e-15
    0.0275275       287.866       288.701      0.301153       11.2598       1.73355             0       6.40633      0.970369             0       22.1222    -0.0926945             0       6.36279             0             0      0.189556   1.44304e-15      0.175844        102491        103213        223799   2.64392e-15
     0.028028       287.884       288.703      0.298707       11.2117       1.95733             0       6.30725       1.02718             0       22.9966    -0.0122312             0       6.44638             0             0       0.18879   1.48537e-15      0.179175        102490        103213        224057   2.72148e-15
    0.0285285       287.899         288.7      0.289981       11.3723       2.22408             0       6.24673       1.07591             0       23.5219   -0.00892336             0       6.65517             0             0      0.188217   1.51401e-15      0.181663        102488        103212        224405   2.77396e-15
     0.029029       287.914       288.697      0.281089       11.5388       2.49288             0       6.18954       1.12372             0        23.996   -0.00253547             0       6.86925             0             0      0.187654    1.5423e-15      0.184114        102486        103212        224759   2.82579e-15
    0.0295295       287.927        288.69      0.269484       11.8031       2.79503             0       6.18648       1.15656             0        23.636     0.0538772             0       7.16915             0             0      0.187227   1.56488e-15      0.185971        102485        103211        225215   2.86714e-15
      0.03003       287.941       288.684      0.257886       12.0601       3.09644             0       6.18648        1.1884             0       23.2218      0.115013             0       7.47202             0             0      0.186802   1.58744e-15      0.187817        102483        103210        225676   2.90849e-15
    0.0305305       287.962       288.678      0.246417       12.2028       3.38651             0       6.23462       1.20469             0       21.9575      0.250148             0       7.82136             0             0      0.186415   1.60998e-15      0.189501        102480        103209        226213   2.94978e-15
     0.031031       287.984       288.673      0.234925       12.3289       3.67303             0       6.28472       1.22014             0       20.6627      0.385378             0       8.17179             0             0      0.186016   1.63363e-15      0.191237        102478        103208        226755   2.99312e-15
    0.0315315       288.029        288.67      0.223079       12.2039       3.90588             0       6.36437       1.22305             0       18.9084      0.522045             0       8.53881             0             0      0.185434   1.67431e-15      0.193767        102475        103208        227362   3.06765e-15
     0.032032       288.075       288.668      0.211225       12.0642       4.13448             0       6.44486       1.22541             0       17.1541       0.65271             0       8.90539             0             0       0.18484   1.71589e-15      0.196346        102473        103207        227970   3.14382e-15
    0.0325325       288.135       288.667      0.199258       11.7076       4.30084             0       6.53761       1.21962             0       15.4021      0.695609             0       9.26567             0             0      0.184079   1.77054e-15      0.199656        102470        103206        228612   3.24396e-15
     0.033033       288.194       288.666      0.187387       11.3442       4.46528             0       6.63053       1.21353             0       13.6697       0.72968             0       9.62435             0             0      0.183328   1.82403e-15      0.202922        102467        103206        229251   3.34197e-15
    0.0335335       288.239       288.666      0.176875       10.8841       4.60252             0       6.72594       1.20327             0        12.214       0.63882             0        9.9605             0             0      0.182717   1.86112e-15      0.205579        102465        103205        229850   3.40993e-15
     0.034034       288.283       288.666      0.166514       10.4216       4.74073             0       6.82132       1.19277             0       10.7827      0.539564             0        10.294             0             0      0.182119   1.89687e-15      0.208176        102462        103205        230447   3.47542e-15
    0.0345345       288.308       288.666      0.158217       9.92596        4.8923             0       6.91642       1.17881             0       9.68675      0.325217             0       10.5909             0             0       0.18171   1.91414e-15      0.209955        102460        103205        231014   3.50706e-15
     0.035035       288.332       288.667       0.15006       9.42578       5.04526             0       7.01204       1.16469             0       8.61002      0.102921             0       10.8832             0             0      0.181311   1.93078e-15      0.211691        102458        103204        231578   3.53755e-15
    0.0355355       288.342       288.667       0.14376       8.86537       5.21659             0       7.11453       1.14834             0       7.78876     -0.224993             0       11.1149             0             0      0.181043   1.93909e-15      0.212857        102456        103204        232093   3.55277e-15
     0.036036       288.352       288.667      0.137562       8.29841       5.38591             0        7.2179       1.13191             0       6.98882     -0.559449             0       11.3378             0             0      0.180785   1.94706e-15      0.213979        102455        103204        232599   3.56737e-15
    0.0365365       288.354       288.667       0.13268       7.64691       5.52929             0       7.33252        1.1145             0       6.46365     -0.978227             0       11.4462             0             0      0.180659   1.95064e-15      0.214528        102453        103204        232994   3.57393e-15
     0.037037       288.356       288.667      0.127866       6.98876       5.66843             0       7.44719       1.09682             0       5.97224      -1.39965             0       11.5416             0             0      0.180538   1.95413e-15      0.215053        102452        103204        233383   3.58032e-15
    0.0375375        288.35       288.668        0.1239       6.24745       5.75462             0       7.56246       1.07585             0       5.90314      -1.85416             0        11.476             0             0      0.180485    1.9565e-15      0.215281        102451        103205        233689   3.58467e-15
     0.038038       288.344       288.669      0.119985       5.50269       5.83483             0       7.67704       1.05461             0        5.8731      -2.30672             0       11.3965             0             0      0.180435   1.95878e-15        0.2155        102450        103205        233989   3.58885e-15
    0.0385385        288.33        288.67      0.116682       4.71617       5.84229             0       7.78324       1.03005             0       6.31786      -2.73559             0       11.1468             0             0      0.180412   1.96001e-15      0.215598        102450        103206        234206    3.5911e-15
     0.039039       288.317       288.671      0.113419       3.93127       5.84189             0       7.88844       1.00524             0       6.80065      -3.15781             0        10.883             0             0      0.180392   1.96095e-15      0.215685        102450        103207        234415   3.59283e-15
    0.0395395         288.3       288.671      0.110628       3.16564       5.74854             0       7.98191      0.977526             0       7.73306      -3.50157             0       10.4524             0             0      0.180406   1.95862e-15      0.215625        102451        103208        234518   3.58855e-15
      0.04004       288.282       288.672      0.107874       2.39788       5.65352             0       8.07411      0.949563             0       8.69912      -3.83372             0       10.0098             0             0      0.180427   1.95535e-15      0.215534        102451        103209        234618   3.58256e-15
    0.0405405       288.256       288.671      0.105549       1.60557       5.53912             0       8.15159      0.918766             0       10.0521      -4.03231             0       9.42933             0             0      0.180533   1.94135e-15      0.215073        102452        103210        234667   3.55691e-15
     0.041041       288.229        288.67      0.103227       0.81008       5.42468             0       8.22713      0.887672             0       11.4218      -4.21592             0          8.84             0             0      0.180676   1.92548e-15      0.214452        102453        103212        234713   3.52783e-15
    0.0415415       288.189       288.666      0.100935    -0.0210481       5.30979             0       8.28108      0.853258             0       12.9772      -4.23173             0       8.15194             0             0      0.181228   1.88863e-15      0.212051        102455        103213        234729   3.46032e-15
     0.042042       288.146       288.663     0.0986325     -0.843952       5.18763             0       8.33207      0.818342             0       14.5204      -4.23352             0       7.46013             0             0      0.181884   1.84832e-15        0.2092        102456        103215        234741   3.38646e-15
    0.0425425       288.079       288.658     0.0962186      -1.57717       4.98638             0       8.35085      0.777947             0       15.9295      -4.08232             0       6.72754             0             0      0.183666   1.77023e-15      0.201453        102458        103216        234705    3.2434e-15
     0.043043       288.014       288.653     0.0938276      -2.29095        4.7765             0       8.36671      0.737063             0       17.3051      -3.92209             0       5.99775             0             0      0.185459   1.69241e-15      0.193658        102460        103217        234671   3.10081e-15
    0.0435435        287.96       288.649     0.0916807      -2.79805       4.47481             0       8.35163      0.690988             0       18.3243      -3.66598             0       5.29785             0             0       0.18737    1.6173e-15      0.185349        102463        103219        234667   2.96319e-15
     0.044044       287.909       288.644     0.0895831      -3.28752       4.16722             0       8.33453      0.644407             0       19.3078      -3.40886             0       4.60395             0             0       0.18926   1.54394e-15      0.177129        102465        103220        234667   2.82878e-15
    0.0445445        287.89        288.64     0.0879973      -3.59422       3.79841             0       8.29655      0.592575             0       19.9215      -3.14132             0       3.97218             0             0      0.190938   1.48866e-15      0.169835        102467        103221        234715   2.72751e-15
     0.045045       287.872       288.636     0.0864312      -3.89285       3.42775             0        8.2564      0.540159             0       20.5114      -2.87717             0       3.34675             0             0      0.192621   1.43378e-15      0.162515        102469        103223        234760   2.62696e-15
    0.0455455       287.857       288.633      0.085065      -4.10986       3.03846             0        8.1943      0.481835             0       20.8608      -2.64743             0       2.78533             0             0      0.194365   1.38289e-15      0.154935        102470        103224        234784   2.53371e-15