#           y             T         TMean   TPrime2Mean           U_x           U_y           U_z       UMean_x       UMean_y       UMean_z UPrime2Mea... UPrime2Mea... UPrime2Mea... UPrime2Mea... UPrime2Mea... UPrime2Mea...            O2           H2O          C3H8             p         pMean   pPrime2Mean           CO2
         0.04       288.543       288.354      0.115675       2.66278      -6.39948             0      -4.82883      -7.41332             0       20.8023       6.44193             0        34.438             0             0      0.218424    1.2253e-15     0.0503315        103695        103045        251588   2.24498e-15
     0.039975       288.542       288.354      0.115867       2.65714      -6.37804             0      -4.82406      -7.42134             0       20.8266       6.34923             0       34.5882             0             0      0.218392    1.2251e-15     0.0504703        103694        103044        251559    2.2446e-15
    0.0399499       288.541       288.353      0.116058       2.65149      -6.35659             0      -4.81928      -7.42936             0       20.8509       6.25653             0       34.7383             0             0       0.21836   1.22489e-15      0.050609        103694        103044        251530   2.24423e-15
    0.0399249        288.54       288.353      0.116249       2.64584      -6.33515             0       -4.8145      -7.43739             0       20.8752       6.16383             0       34.8884             0             0      0.218328   1.22468e-15     0.0507478        103693        103044        251501   2.24385e-15
    0.0398999       288.539       288.353       0.11644       2.64019       -6.3137             0      -4.80972      -7.44541             0       20.8995       6.07113             0       35.0386             0             0      0.218296   1.22448e-15     0.0508865        103692        103044        251472   2.24347e-15
    0.0398749       288.537       288.352      0.116631       2.63455      -6.29225             0      -4.80494      -7.45343             0       20.9238       5.97844             0       35.1887             0             0      0.218264   1.22427e-15     0.0510252        103691        103044        251444   2.24309e-15
    0.0398498       288.536       288.352      0.116823        2.6289      -6.27081             0      -4.80017      -7.46146             0       20.9481       5.88574             0       35.3389             0             0      0.218232   1.22407e-15      0.051164        103690        103043        251415   2.24272e-15
    0.0398248       288.535       288.351      0.117014       2.62325      -6.24936             0      -4.79539      -7.46948             0       20.9724       5.79304             0        35.489             0             0        0.2182   1.22386e-15     0.0513027        103690        103043        251386   2.24234e-15
    0.0397998       288.534       288.351      0.117205       2.61761      -6.22792             0      -4.79061       -7.4775             0       20.9967       5.70034             0       35.6391             0             0      0.218168   1.22365e-15     0.0514414        103689        103043        251357   2.24196e-15
    0.0397748       288.533       288.351      0.117396       2.61196      -6.20647             0      -4.78583      -7.48553             0        21.021       5.60764             0       35.7893             0             0      0.218137   1.22345e-15     0.0515802        103688        103043        251328   2.24158e-15
    0.0397497       288.531        288.35      0.117587       2.60631      -6.18503             0      -4.78106      -7.49355             0       21.0453       5.51495             0       35.9394             0             0      0.218105   1.22324e-15     0.0517189        103687        103043        251299   2.24121e-15
    0.0397247        288.53        288.35      0.117778       2.60067      -6.16358             0      -4.77628      -7.50157             0       21.0696       5.42225             0       36.0896             0             0      0.218073   1.22304e-15     0.0518577        103686        103042        251270   2.24083e-15
    0.0396997       288.529       288.349       0.11797       2.59502      -6.14214             0       -4.7715       -7.5096             0       21.0939       5.32955             0       36.2397             0             0      0.218041   1.22283e-15     0.0519964        103685        103042        251241   2.24045e-15
    0.0396747       288.528       288.349      0.118161       2.58937      -6.12069             0      -4.76672      -7.51762             0       21.1182       5.23685             0       36.3899             0             0      0.218009   1.22262e-15     0.0521351        103685        103042        251212   2.24007e-15
    0.0396496       288.527       288.348      0.118352       2.58373      -6.09925             0      -4.76194      -7.52564             0       21.1425       5.14415             0         36.54             0             0      0.217977   1.22242e-15     0.0522739        103684        103042        251184    2.2397e-15
    0.0396246       288.525       288.348      0.118543       2.57808       -6.0778             0      -4.75717      -7.53366             0       21.1668       5.05145             0       36.6901             0             0      0.217945   1.22221e-15     0.0524126        103683        103042        251155   2.23932e-15
    0.0395996       288.524       288.348      0.118734       2.57243      -6.05636             0      -4.75239      -7.54169             0       21.1911       4.95876             0       36.8403             0             0      0.217913     1.222e-15     0.0525513        103682        103041        251126   2.23894e-15
    0.0395746       288.523       288.347      0.118926       2.56678      -6.03491             0      -4.74761      -7.54971             0       21.2154       4.86606             0       36.9904             0             0      0.217881    1.2218e-15     0.0526901        103681        103041        251097   2.23856e-15
    0.0395495       288.522       288.347      0.119117       2.56114      -6.01347             0      -4.74283      -7.55773             0       21.2397       4.77336             0       37.1406             0             0      0.217849   1.22159e-15     0.0528288        103681        103041        251068   2.23819e-15
    0.0395245       288.521       288.346      0.119308       2.55549      -5.99202             0      -4.73805      -7.56576             0       21.2639       4.68066             0       37.2907             0             0      0.217817   1.22139e-15     0.0529675        103680        103041        251039   2.23781e-15
    0.0394995       288.519       288.346      0.119499       2.54984      -5.97058             0      -4.73328      -7.57378             0       21.2882       4.58796             0       37.4409             0             0      0.217786   1.22118e-15     0.0531063        103679        103041        251010   2.23743e-15
    0.0394745       288.518       288.346       0.11969        2.5442      -5.94913             0       -4.7285       -7.5818             0       21.3125       4.49526             0        37.591             0             0      0.217754   1.22097e-15      0.053245        103678        103040        250981   2.23705e-15
    0.0394494       288.517       288.345      0.119882       2.53855      -5.92769             0      -4.72372      -7.58983             0       21.3368       4.40257             0       37.7411             0             0      0.217722   1.22077e-15     0.0533838        103677        103040        250953   2.23668e-15
    0.0394244       288.516       288.345      0.120073        2.5329      -5.90624             0      -4.71894      -7.59785             0       21.3611       4.30987             0       37.8913             0             0       0.21769   1.22056e-15     0.0535225        103677        103040        250924    2.2363e-15
    0.0393994       288.514       288.344      0.120264       2.52726       -5.8848             0      -4.71416      -7.60587             0       21.3854       4.21717             0       38.0414             0             0      0.217658   1.22036e-15     0.0536612        103676        103040        250895   2.23592e-15
    0.0393744       288.513       288.344      0.120455       2.52161      -5.86335             0      -4.70939       -7.6139             0       21.4097       4.12447             0       38.1916             0             0      0.217626   1.22015e-15        0.0538        103675        103040        250866   2.23554e-15
    0.0393493       288.512       288.344      0.120646       2.51596      -5.84191             0      -4.70461      -7.62192             0        21.434       4.03177             0       38.3417             0             0      0.217594   1.21994e-15     0.0539387        103674        103039        250837   2.23516e-15
    0.0393243       288.511       288.343      0.120837       2.51032      -5.82046             0      -4.69983      -7.62994             0       21.4583       3.93908             0       38.4919             0             0      0.217562   1.21974e-15     0.0540774        103673        103039        250808   2.23479e-15
    0.0392993        288.51       288.343      0.121029       2.50467      -5.79902             0      -4.69505      -7.63796             0       21.4826       3.84638             0        38.642             0             0       0.21753   1.21953e-15     0.0542162        103673        103039        250779   2.23441e-15
    0.0392743       288.508       288.342       0.12122       2.49902      -5.77757             0      -4.69027      -7.64599             0       21.5069       3.75368             0       38.7921             0             0      0.217498   1.21933e-15     0.0543549        103672        103039        250750   2.23403e-15
    0.0392492       288.507       288.342      0.121411       2.49338      -5.75613             0       -4.6855      -7.65401             0       21.5312       3.66098             0       38.9423             0             0      0.217467   1.21912e-15     0.0544937        103671        103039        250722   2.23365e-15
    0.0392242       288.506       288.341      0.121602       2.48773      -5.73468             0      -4.68072      -7.66203             0       21.5555       3.56828             0       39.0924             0             0      0.217435   1.21891e-15     0.0546324        103670        103038        250693   2.23328e-15
    0.0391992       288.505       288.341      0.121793       2.48208      -5.71324             0      -4.67594      -7.67006             0       21.5798       3.47558             0       39.2426             0             0      0.217403   1.21871e-15     0.0547711        103669        103038        250664    2.2329e-15
    0.0391742       288.504       288.341      0.121985       2.47643      -5.69179             0      -4.67116      -7.67808             0       21.6041       3.38289             0       39.3927             0             0      0.217371    1.2185e-15     0.0549099        103669        103038        250635   2.23252e-15
    0.0391491       288.502        288.34      0.122176       2.47079      -5.67035             0      -4.66639       -7.6861             0       21.6284       3.29019             0       39.5429             0             0      0.217339    1.2183e-15     0.0550486        103668        103038        250606   2.23214e-15
    0.0391241       288.501        288.34      0.122367       2.46514       -5.6489             0      -4.66161      -7.69413             0       21.6527       3.19749             0        39.693             0             0      0.217307   1.21809e-15     0.0551873        103667        103038        250577   2.23177e-15
    0.0390991         288.5       288.339      0.122558       2.45949      -5.62746             0      -4.65683      -7.70215             0        21.677       3.10479             0       39.8431             0             0      0.217275   1.21788e-15     0.0553261        103666        103037        250548   2.23139e-15
    0.0390741       288.499       288.339      0.122749       2.45385      -5.60601             0      -4.65205      -7.71017             0       21.7013       3.01209             0       39.9933             0             0      0.217243   1.21768e-15     0.0554648        103665        103037        250519   2.23101e-15
     0.039049       288.498       288.339      0.122941        2.4482      -5.58456             0      -4.64727       -7.7182             0       21.7256       2.91939             0       40.1434             0             0      0.217211   1.21747e-15     0.0556035        103665        103037        250490   2.23063e-15
     0.039024       288.496       288.338      0.123132       2.44255      -5.56312             0       -4.6425      -7.72622             0       21.7499        2.8267             0       40.2936             0             0      0.217179   1.21726e-15     0.0557423        103664        103037        250462   2.23026e-15
     0.038999       288.495       288.338       0.12332       2.43755      -5.54151             0       -4.6375      -7.73411             0       21.7739       2.73458             0       40.4442             0             0      0.217146   1.21706e-15     0.0558886        103663        103037        250433   2.22987e-15
     0.038974       288.492       288.337      0.123444       2.44795      -5.51583             0      -4.62716      -7.73883             0       21.7901       2.65647             0       40.6062             0             0       0.21707   1.21679e-15      0.056218        103662        103036        250412   2.22938e-15
    0.0389489       288.489       288.337      0.123568       2.45835      -5.49016             0      -4.61683      -7.74356             0       21.8064       2.57836             0       40.7681             0             0      0.216994   1.21652e-15     0.0565473        103661        103036        250391   2.22889e-15
    0.0389239       288.487       288.336      0.123691       2.46875      -5.46449             0       -4.6065      -7.74828             0       21.8227       2.50025             0       40.9301             0             0      0.216919   1.21625e-15     0.0568766        103660        103036        250369    2.2284e-15
    0.0388989       288.484       288.336      0.123815       2.47915      -5.43882             0      -4.59617      -7.75301             0       21.8389       2.42214             0       41.0921             0             0      0.216843   1.21598e-15     0.0572059        103659        103036        250348   2.22791e-15
    0.0388739       288.481       288.336      0.123939       2.48955      -5.41315             0      -4.58584      -7.75773             0       21.8552       2.34403             0       41.2541             0             0      0.216767   1.21571e-15     0.0575353        103658        103036        250327   2.22742e-15
    0.0388488       288.478       288.335      0.124063       2.49996      -5.38748             0      -4.57551      -7.76246             0       21.8714       2.26592             0        41.416             0             0      0.216691   1.21545e-15     0.0578646        103657        103035        250306   2.22692e-15
    0.0388238       288.475       288.335      0.124187       2.51036      -5.36181             0      -4.56518      -7.76718             0       21.8877       2.18781             0        41.578             0             0      0.216616   1.21518e-15     0.0581939        103656        103035        250284   2.22643e-15
    0.0387988       288.472       288.334       0.12431       2.52076      -5.33614             0      -4.55485      -7.77191             0       21.9039        2.1097             0         41.74             0             0       0.21654   1.21491e-15     0.0585232        103655        103035        250263   2.22594e-15
    0.0387738       288.469       288.334      0.124434       2.53116      -5.31046             0      -4.54452      -7.77663             0       21.9202       2.03159             0        41.902             0             0      0.216464   1.21464e-15     0.0588526        103654        103035        250242   2.22545e-15
    0.0387487       288.467       288.334      0.124558       2.54156      -5.28479             0      -4.53419      -7.78136             0       21.9364       1.95347             0       42.0639             0             0      0.216388   1.21437e-15     0.0591819        103653        103035        250221   2.22496e-15
    0.0387237       288.464       288.333      0.124682       2.55196      -5.25912             0      -4.52385      -7.78608             0       21.9527       1.87536             0       42.2259             0             0      0.216313   1.21411e-15     0.0595112        103652        103035        250200   2.22447e-15
    0.0386987       288.461       288.333      0.124805       2.56236      -5.23345             0      -4.51352      -7.79081             0       21.9689       1.79725             0       42.3879             0             0      0.216237   1.21384e-15     0.0598405        103651        103034        250178   2.22398e-15
    0.0386737       288.458       288.332      0.124929       2.57276      -5.20778             0      -4.50319      -7.79553             0       21.9852       1.71914             0       42.5499             0             0      0.216161   1.21357e-15     0.0601699        103650        103034        250157   2.22348e-15
    0.0386486       288.455       288.332      0.125053       2.58316      -5.18211             0      -4.49286      -7.80026             0       22.0014       1.64103             0       42.7118             0             0      0.216085    1.2133e-15     0.0604992        103649        103034        250136   2.22299e-15
    0.0386236       288.452       288.332      0.125177       2.59357      -5.15644             0      -4.48253      -7.80498             0       22.0177       1.56292             0       42.8738             0             0       0.21601   1.21303e-15     0.0608285        103648        103034        250115    2.2225e-15
    0.0385986       288.449       288.331        0.1253       2.60397      -5.13077             0       -4.4722      -7.80971             0       22.0339       1.48481             0       43.0358             0             0      0.215934   1.21276e-15     0.0611578        103647        103034        250093   2.22201e-15
    0.0385736       288.447       288.331      0.125424       2.61437      -5.10509             0      -4.46187      -7.81443             0       22.0502        1.4067             0       43.1977             0             0      0.215858    1.2125e-15     0.0614871        103646        103033        250072   2.22152e-15
    0.0385485       288.444        288.33      0.125548       2.62477      -5.07942             0      -4.45154      -7.81916             0       22.0664       1.32859             0       43.3597             0             0      0.215783   1.21223e-15     0.0618165        103645        103033        250051   2.22103e-15
    0.0385235       288.441        288.33      0.125672       2.63517      -5.05375             0      -4.44121      -7.82388             0       22.0827       1.25048             0       43.5217             0             0      0.215707   1.21196e-15     0.0621458        103644        103033        250030   2.22054e-15
    0.0384985       288.438       288.329      0.125795       2.64557      -5.02808             0      -4.43087      -7.82861             0       22.0989       1.17237             0       43.6837             0             0      0.215631   1.21169e-15     0.0624751        103643        103033        250008   2.22004e-15
    0.0384735       288.435       288.329      0.125919       2.65597      -5.00241             0      -4.42054      -7.83333             0       22.1152       1.09426             0       43.8456             0             0      0.215555   1.21142e-15     0.0628044        103642        103033        249987   2.21955e-15
    0.0384484       288.432       288.329      0.126043       2.66637      -4.97674             0      -4.41021      -7.83806             0       22.1314       1.01615             0       44.0076             0             0       0.21548   1.21115e-15     0.0631338        103641        103032        249966   2.21906e-15
    0.0384234        288.43       288.328      0.126167       2.67678      -4.95107             0      -4.39988      -7.84278             0       22.1477      0.938036             0       44.1696             0             0      0.215404   1.21089e-15     0.0634631        103640        103032        249945   2.21857e-15
    0.0383984       288.427       288.328       0.12629       2.68718       -4.9254             0      -4.38955      -7.84751             0       22.1639      0.859925             0       44.3316             0             0      0.215328   1.21062e-15     0.0637924        103639        103032        249924   2.21808e-15
    0.0383734       288.424       288.327      0.126414       2.69758      -4.89972             0      -4.37922      -7.85223             0       22.1802      0.781814             0       44.4935             0             0      0.215252   1.21035e-15     0.0641217        103638        103032        249902   2.21759e-15
    0.0383483       288.421       288.327      0.126538       2.70798      -4.87405             0      -4.36889      -7.85696             0       22.1964      0.703704             0       44.6555             0             0      0.215177   1.21008e-15     0.0644511        103637        103032        249881    2.2171e-15
    0.0383233       288.418       288.327      0.126662       2.71838      -4.84838             0      -4.35856      -7.86168             0       22.2127      0.625593             0       44.8175             0             0      0.215101   1.20981e-15     0.0647804        103636        103032        249860    2.2166e-15
    0.0382983       288.415       288.326      0.126785       2.72878      -4.82271             0      -4.34823      -7.86641             0       22.2289      0.547482             0       44.9795             0             0      0.215025   1.20955e-15     0.0651097        103635        103031        249839   2.21611e-15
    0.0382733       288.412       288.326      0.126909       2.73918      -4.79704             0      -4.33789      -7.87113             0       22.2452      0.469372             0       45.1414             0             0      0.214949   1.20928e-15      0.065439        103634        103031        249817   2.21562e-15
    0.0382482        288.41       288.325      0.127033       2.74958      -4.77137             0      -4.32756      -7.87586             0       22.2614      0.391261             0       45.3034             0             0      0.214874   1.20901e-15     0.0657684        103633        103031        249796   2.21513e-15
    0.0382232       288.407       288.325      0.127157       2.75999       -4.7457             0      -4.31723      -7.88058             0       22.2777       0.31315             0       45.4654             0             0      0.214798   1.20874e-15     0.0660977        103632        103031        249775   2.21464e-15
    0.0381982       288.404       288.325       0.12728       2.77039      -4.72003             0       -4.3069       -7.8853             0       22.2939      0.235039             0       45.6274             0             0      0.214722   1.20847e-15      0.066427        103631        103031        249754   2.21415e-15
    0.0381732       288.401       288.324      0.127404       2.78079      -4.69435             0      -4.29657      -7.89003             0       22.3102      0.156929             0       45.7893             0             0      0.214647    1.2082e-15     0.0667563        103630        103030        249732   2.21366e-15
    0.0381481       288.398       288.324      0.127528       2.79119      -4.66868             0      -4.28624      -7.89475             0       22.3265      0.078818             0       45.9513             0             0      0.214571   1.20794e-15     0.0670857        103629        103030        249711   2.21316e-15
    0.0381231       288.395       288.323      0.127652       2.80159      -4.64301             0      -4.27591      -7.89948             0       22.3427   0.000707314             0       46.1133             0             0      0.214495   1.20767e-15      0.067415        103628        103030        249690   2.21267e-15
    0.0380981       288.392       288.323      0.127776       2.81199      -4.61734             0      -4.26558       -7.9042             0        22.359    -0.0774034             0       46.2753             0             0      0.214419    1.2074e-15     0.0677443        103627        103030        249669   2.21218e-15
    0.0380731        288.39       288.322      0.127899       2.82239      -4.59167             0      -4.25525      -7.90893             0       22.3752     -0.155514             0       46.4372             0             0      0.214344   1.20713e-15     0.0680736        103626        103030        249648   2.21169e-15
     0.038048       288.387       288.322      0.128023       2.83279        -4.566             0      -4.24492      -7.91365             0       22.3915     -0.233625             0       46.5992             0             0      0.214268   1.20686e-15     0.0684029        103625        103030        249626    2.2112e-15
     0.038023       288.384       288.322      0.128147       2.84319      -4.54033             0      -4.23458      -7.91838             0       22.4077     -0.311736             0       46.7612             0             0      0.214192   1.20659e-15     0.0687323        103624        103029        249605   2.21071e-15
     0.037998       288.381       288.321      0.128265       2.85319      -4.51526             0       -4.2238      -7.92278             0       22.4223     -0.388245             0       46.9235             0             0      0.214112   1.20629e-15     0.0690814        103623        103029        249585   2.21015e-15
     0.037973       288.377       288.321      0.128316       2.85848      -4.49716             0      -4.20776      -7.92347             0       22.4179     -0.446335             0       47.0899             0             0      0.213979   1.20559e-15     0.0696586        103622        103029        249572   2.20886e-15
    0.0379479       288.372       288.321      0.128367       2.86377      -4.47906             0      -4.19173      -7.92416             0       22.4135     -0.504425             0       47.2563             0             0      0.213846   1.20488e-15     0.0702357        103622        103029        249559   2.20757e-15
    0.0379229       288.368        288.32      0.128418       2.86906      -4.46097             0       -4.1757      -7.92484             0        22.409     -0.562515             0       47.4226             0             0      0.213714   1.20418e-15     0.0708129        103621        103029        249546   2.20628e-15
    0.0378979       288.364        288.32      0.128469       2.87436      -4.44287             0      -4.15967      -7.92553             0       22.4046     -0.620605             0        47.589             0             0      0.213581   1.20347e-15       0.07139        103620        103029        249533   2.20499e-15
    0.0378729        288.36        288.32       0.12852       2.87965      -4.42477             0      -4.14363      -7.92622             0       22.4002     -0.678695             0       47.7554             0             0      0.213448   1.20277e-15     0.0719672        103619        103028        249521    2.2037e-15
    0.0378478       288.356       288.319      0.128571       2.88494      -4.40667             0       -4.1276       -7.9269             0       22.3957     -0.736785             0       47.9218             0             0      0.213315   1.20207e-15     0.0725443        103618        103028        249508   2.20241e-15
    0.0378228       288.351       288.319      0.128623       2.89023      -4.38857             0      -4.11157      -7.92759             0       22.3913     -0.794875             0       48.0881             0             0      0.213183   1.20136e-15     0.0731215        103617        103028        249495   2.20112e-15
    0.0377978       288.347       288.319      0.128674       2.89553      -4.37048             0      -4.09554      -7.92828             0       22.3869     -0.852965             0       48.2545             0             0       0.21305   1.20066e-15     0.0736986        103616        103028        249482   2.19983e-15
    0.0377728       288.343       288.318      0.128725       2.90082      -4.35238             0       -4.0795      -7.92897             0       22.3825     -0.911055             0       48.4209             0             0      0.212917   1.19995e-15     0.0742758        103615        103028        249470   2.19854e-15
    0.0377477       288.339       288.318      0.128776       2.90611      -4.33428             0      -4.06347      -7.92965             0        22.378     -0.969145             0       48.5873             0             0      0.212784   1.19925e-15     0.0748529        103614        103028        249457   2.19725e-15
    0.0377227       288.335       288.318      0.128827        2.9114      -4.31618             0      -4.04744      -7.93034             0       22.3736      -1.02723             0       48.7537             0             0      0.212652   1.19855e-15     0.0754301        103613        103028        249444   2.19596e-15