#           y             T         TMean   TPrime2Mean           U_x           U_y           U_z       UMean_x       UMean_y       UMean_z UPrime2Mea... UPrime2Mea... UPrime2Mea... UPrime2Mea... UPrime2Mea... UPrime2Mea...            O2           H2O          C3H8             p         pMean   pPrime2Mean           CO2
         0.02       386.418       291.026       198.505       18.5423      -1.22201             0       21.8141     -0.877068             0       40.2192      -2.85034             0       19.6116             0             0      0.113563    0.00194532      0.486195        103875        103082        205059    0.00356419
    0.0201677        375.82       290.771       176.014       18.8058      -1.65971             0       21.8453     -0.859648             0       40.0391      -2.06296             0       20.0126             0             0      0.121096    0.00168411      0.456118        103879        103081        205616     0.0030856
    0.0203353       365.221       290.515       153.522       19.0692      -2.09742             0       21.8766     -0.842228             0       39.8589      -1.27557             0       20.4136             0             0      0.128629     0.0014229      0.426041        103884        103081        206172    0.00260701
     0.020503       354.623        290.26       131.031       19.3327      -2.53513             0       21.9078     -0.824808             0       39.6788     -0.488193             0       20.8145             0             0      0.136161    0.00116168      0.395965        103888        103080        206728    0.00212842
    0.0206707       344.025       290.005       108.539       19.5962      -2.97284             0        21.939     -0.807388             0       39.4986      0.299188             0       21.2155             0             0      0.143694   0.000900471      0.365888        103892        103080        207285    0.00164983
    0.0208383       333.426        289.75       86.0477       19.8596      -3.41055             0       21.9702     -0.789967             0       39.3185       1.08657             0       21.6165             0             0      0.151227   0.000639258      0.335811        103897        103079        207841    0.00117124
     0.021006       323.054         289.5       64.0916       20.1192      -3.84184             0       21.9957     -0.772134             0       39.1458       1.87919             0       22.0189             0             0      0.158714   0.000385403      0.305857        103901        103079        208399    0.00070613
    0.0211737       318.773       289.376       56.5475       20.2733      -4.10031             0       21.8661     -0.743169             0       39.1726       2.81285             0       22.4603             0             0       0.16498   0.000329613      0.279195        103902        103078        209005   0.000603913
    0.0213413       314.492       289.252       49.0034       20.4274      -4.35878             0       21.7365     -0.714204             0       39.1994       3.74651             0       22.9016             0             0      0.171246   0.000273824      0.252532        103903        103078        209611   0.000501696
     0.021509       310.211       289.128       41.4593       20.5815      -4.61726             0        21.607      -0.68524             0       39.2263       4.68017             0        23.343             0             0      0.177512   0.000218034      0.225869        103904        103077        210216   0.000399479
    0.0216767       305.929       289.004       33.9152       20.7357      -4.87573             0       21.4774     -0.656275             0       39.2531       5.61383             0       23.7843             0             0      0.183778   0.000162244      0.199207        103906        103077        210822   0.000297262
    0.0218443       301.648       288.881       26.3711       20.8898       -5.1342             0       21.3478      -0.62731             0         39.28       6.54749             0       24.2257             0             0      0.190044   0.000106455      0.172544        103907        103076        211428   0.000195045
     0.022012       297.586       288.761       19.1919       21.0276      -5.38155             0       21.2068     -0.599415             0       39.3051       7.47777             0       24.6701             0             0      0.196103   5.40789e-05      0.146746        103908        103076        212039   9.90826e-05
    0.0221797       296.365       288.704       16.7411       20.9535      -5.48474             0       20.9173     -0.585375             0       39.3079       8.36425             0       25.1538             0             0      0.199482   4.59387e-05      0.132148        103911        103075        212726   8.41682e-05
    0.0223473       295.143       288.646       14.2904       20.8794      -5.58793             0       20.6277     -0.571335             0       39.3107       9.25073             0       25.6376             0             0      0.202861   3.77984e-05      0.117549        103913        103075        213412   6.92538e-05
     0.022515       293.922       288.588       11.8396       20.8053      -5.69112             0       20.3382     -0.557295             0       39.3135       10.1372             0       26.1213             0             0      0.206239   2.96582e-05      0.102951        103916        103074        214098   5.43394e-05
    0.0226827         292.7        288.53       9.38884       20.7312      -5.79431             0       20.0487     -0.543255             0       39.3163       11.0237             0        26.605             0             0      0.209618    2.1518e-05     0.0883527        103919        103074        214784    3.9425e-05
    0.0228504       291.479       288.472       6.93807       20.6571       -5.8975             0       19.7592     -0.529216             0       39.3191       11.9102             0       27.0887             0             0      0.212997   1.33778e-05     0.0737544        103921        103073        215471   2.45106e-05
     0.023018        290.36       288.418       4.68244       20.5621      -5.99102             0       19.4572      -0.51849             0       39.2957       12.7695             0       27.5931             0             0      0.216118    6.0115e-06     0.0602687        103924        103073        216165   1.10142e-05
    0.0231857       290.097       288.397       4.04745       20.2944      -6.00431             0       19.0521     -0.535293             0       39.0543       13.4036             0       28.2694             0             0      0.217098   5.07351e-06     0.0560241        103926        103072        216930   9.29561e-06
    0.0233534       289.834       288.376       3.41247       20.0266      -6.01759             0       18.6469     -0.552095             0        38.813       14.0376             0       28.9456             0             0      0.218077   4.13551e-06     0.0517796        103928        103072        217694   7.57703e-06
     0.023521       289.571       288.354       2.77748       19.7588      -6.03087             0       18.2418     -0.568898             0       38.5717       14.6717             0       29.6219             0             0      0.219057   3.19751e-06     0.0475351        103930        103071        218459   5.85844e-06
    0.0236887       289.308       288.333        2.1425        19.491      -6.04416             0       17.8366     -0.585701             0       38.3304       15.3058             0       30.2981             0             0      0.220036   2.25952e-06     0.0432905        103932        103071        219224   4.13985e-06
    0.0238564       289.045       288.312       1.50752       19.2232      -6.05744             0       17.4315     -0.602503             0       38.0891       15.9398             0       30.9743             0             0      0.221016   1.32152e-06      0.039046        103934        103070        219988   2.42127e-06
     0.024024       288.814       288.293      0.945691       18.9164      -6.03112             0       17.0259     -0.625218             0       37.8762       16.5227             0       31.6818             0             0      0.221768   5.07069e-07     0.0357885        103937        103070        220760   9.29045e-07
    0.0241917       288.775        288.29      0.821292       18.3764      -5.76799             0       16.6177      -0.68328             0       37.8336       16.7993             0       32.5762             0             0       0.22116   4.31336e-07     0.0384328        103938        103069        221577   7.90287e-07
    0.0243594       288.736       288.287      0.696892       17.8364      -5.50487             0       16.2096     -0.741341             0       37.7909       17.0759             0       33.4706             0             0      0.220553   3.55602e-07     0.0410771        103940        103069        222394    6.5153e-07
     0.024527       288.697       288.283      0.572493       17.2963      -5.24175             0       15.8014     -0.799403             0       37.7483       17.3525             0        34.365             0             0      0.219945   2.79869e-07     0.0437213        103941        103068        223210   5.12772e-07
    0.0246947       288.658        288.28      0.448094       16.7563      -4.97862             0       15.3933     -0.857465             0       37.7056       17.6291             0       35.2594             0             0      0.219338   2.04135e-07     0.0463656        103943        103068        224027   3.74014e-07
    0.0248624       288.619       288.277      0.323695       16.2163       -4.7155             0       14.9851     -0.915527             0       37.6629       17.9057             0       36.1538             0             0       0.21873   1.28402e-07     0.0490099        103944        103067        224844   2.35256e-07
      0.02503       288.582       288.275      0.218525       15.6635      -4.45604             0       14.5932     -0.980083             0       37.6063       18.1447             0       37.0865             0             0       0.21793   6.44285e-08     0.0524914        103946        103067        225668   1.18045e-07
    0.0251977       288.555       288.277      0.201492       15.0524       -4.2134             0       14.2759       -1.0744             0       37.4858       18.2115             0       38.1949             0             0      0.216247   5.43544e-08     0.0598107        103946        103066        226528   9.95873e-08
    0.0253654       288.528        288.28       0.18446       14.4414      -3.97076             0       13.9586      -1.16873             0       37.3653       18.2782             0       39.3032             0             0      0.214563   4.42803e-08       0.06713        103946        103065        227388   8.11297e-08
     0.025533       288.501       288.283      0.167427       13.8303      -3.72813             0       13.6412      -1.26305             0       37.2447        18.345             0       40.4115             0             0       0.21288   3.42062e-08     0.0744492        103947        103064        228248   6.26721e-08
    0.0257007       288.474       288.285      0.150394       13.2192      -3.48549             0       13.3239      -1.35737             0       37.1242       18.4117             0       41.5199             0             0      0.211197   2.41321e-08     0.0817685        103947        103063        229108   4.42144e-08
    0.0258684       288.447       288.288      0.133361       12.6081      -3.24285             0       13.0066      -1.45169             0       37.0037       18.4785             0       42.6282             0             0      0.209514    1.4058e-08     0.0890877        103947        103062        229968   2.57568e-08
     0.026036       288.421        288.29      0.119709       12.0338      -3.05906             0       12.7012      -1.55033             0       36.7756        18.509             0         43.77             0             0      0.207854   5.93938e-09     0.0963032        103947        103061        230848    1.0882e-08
    0.0262037       288.397       288.292      0.118406        11.594      -3.09023             0       12.4393      -1.66475             0       36.1545       18.4072             0       45.0339             0             0      0.206282   4.96385e-09      0.103139        103946        103060        231798    9.0947e-09
    0.0263714       288.373       288.293      0.117104       11.1541      -3.12141             0       12.1775      -1.77917             0       35.5334       18.3053             0       46.2978             0             0      0.204709   3.98832e-09      0.109976        103945        103058        232748   7.30735e-09
     0.026539       288.349       288.295      0.115802       10.7143      -3.15258             0       11.9157      -1.89359             0       34.9123       18.2035             0       47.5617             0             0      0.203136    3.0128e-09      0.116812        103943        103057        233697   5.52001e-09
    0.0267067       288.326       288.296      0.114499       10.2744      -3.18376             0       11.6538      -2.00801             0       34.2912       18.1016             0       48.8257             0             0      0.201564   2.03727e-09      0.123648        103942        103056        234647   3.73266e-09
    0.0268744       288.302       288.298      0.113197       9.83458      -3.21494             0        11.392      -2.12244             0         33.67       17.9998             0       50.0896             0             0      0.199991   1.06175e-09      0.130484        103941        103055        235597   1.94532e-09
     0.027042       288.281       288.299      0.112329       9.40579      -3.26076             0       11.1235      -2.23849             0       33.0239       17.8438             0       51.3768             0             0      0.198656   3.17522e-10      0.136288        103939        103053        236555    5.8176e-10
    0.0272097       288.268       288.299      0.112758       9.01008      -3.35037             0       10.8352      -2.35943             0       32.3029        17.526             0       52.7338             0             0       0.19803   2.64449e-10      0.139007        103935        103052        237536    4.8452e-10
    0.0273774       288.254         288.3      0.113188       8.61436      -3.43998             0        10.547      -2.48037             0       31.5818       17.2082             0       54.0907             0             0      0.197404   2.11375e-10      0.141726        103931        103050        238517   3.87279e-10
     0.027545       288.241         288.3      0.113618       8.21865      -3.52959             0       10.2587      -2.60131             0       30.8608       16.8903             0       55.4477             0             0      0.196779   1.58302e-10      0.144445        103928        103049        239498   2.90039e-10
    0.0277127       288.228         288.3      0.114047       7.82293       -3.6192             0       9.97042      -2.72225             0       30.1398       16.5725             0       56.8046             0             0      0.196153   1.05229e-10      0.147165        103924        103047        240479   1.92799e-10
    0.0278804       288.214         288.3      0.114477       7.42722      -3.70881             0       9.68215       -2.8432             0       29.4187       16.2547             0       58.1616             0             0      0.195527   5.21553e-11      0.149884        103920        103046        241459   9.55581e-11
     0.028048       288.203       288.301      0.114968       7.03527      -3.80002             0       9.38969      -2.96649             0       28.7141        15.886             0       59.4986             0             0      0.195036   1.36334e-11      0.152016        103916        103044        242411    2.4979e-11
    0.0282157       288.199       288.301      0.115611        6.6527      -3.89521             0       9.08679      -3.09564             0       28.0502       15.3908             0       60.7861             0             0      0.194882    1.1339e-11      0.152688        103909        103042        243291   2.07752e-11
    0.0283834       288.194       288.302      0.116254       6.27013      -3.99041             0        8.7839      -3.22479             0       27.3864       14.8955             0       62.0736             0             0      0.194727   9.04457e-12       0.15336        103902        103041        244171   1.65713e-11
    0.0285511       288.189       288.302      0.116897       5.88756      -4.08561             0         8.481      -3.35394             0       26.7225       14.4003             0       63.3612             0             0      0.194573   6.75014e-12      0.154032        103896        103039        245051   1.23675e-11
    0.0287187       288.185       288.303      0.117541       5.50499       -4.1808             0        8.1781      -3.48309             0       26.0586        13.905             0       64.6487             0             0      0.194418   4.45571e-12      0.154704        103889        103037        245931   8.16369e-12
    0.0288864        288.18       288.303      0.118184       5.12243        -4.276             0       7.87521      -3.61224             0       25.3948       13.4098             0       65.9362             0             0      0.194263   2.16128e-12      0.155376        103882        103036        246810   3.95986e-12
    0.0290541       288.176       288.303      0.118795       4.75285      -4.37235             0       7.57369      -3.74317             0       24.7618       12.8753             0       67.1375             0             0      0.194116   5.74601e-13      0.156015        103875        103034        247614   1.05278e-12
    0.0292217       288.173       288.304      0.119337       4.41057      -4.47113             0       7.27506      -3.87781             0       24.1936       12.2586             0       68.1577             0             0      0.193985   4.75528e-13      0.156585        103865        103032        248257   8.71255e-13
    0.0293894       288.171       288.304      0.119879        4.0683       -4.5699             0       6.97644      -4.01246             0       23.6254       11.6418             0       69.1779             0             0      0.193854   3.76454e-13      0.157156        103856        103031        248901   6.89735e-13
    0.0295571       288.168       288.304      0.120421       3.72603      -4.66868             0       6.67781       -4.1471             0       23.0572       11.0251             0        70.198             0             0      0.193723   2.77381e-13      0.157726        103846        103029        249544   5.08214e-13
    0.0297247       288.166       288.304      0.120963       3.38375      -4.76745             0       6.37918      -4.28175             0        22.489       10.4083             0       71.2182             0             0      0.193592   1.78308e-13      0.158297        103836        103028        250187   3.26693e-13
    0.0298924       288.163       288.304      0.121505       3.04148      -4.86622             0       6.08056      -4.41639             0       21.9208       9.79158             0       72.2384             0             0       0.19346   7.92346e-14      0.158868        103826        103026        250831   1.45173e-13
    0.0300601       288.161       288.304      0.122018        2.7255      -4.95833             0       5.78687      -4.55069             0       21.4338       9.15409             0       73.1169             0             0      0.193311   1.47784e-14      0.159515        103816        103025        251363   2.70767e-14
    0.0302277       288.157       288.303      0.122479       2.45661      -5.03848             0       5.50204      -4.68439             0       21.0924       8.47941             0       73.7416             0             0       0.19313   1.23441e-14      0.160302        103804        103023        251697   2.26166e-14
    0.0303954       288.153       288.303      0.122941       2.18772      -5.11864             0        5.2172      -4.81808             0       20.7509       7.80474             0       74.3663             0             0       0.19295    9.9098e-15      0.161088        103792        103022        252032   1.81566e-14
    0.0305631        288.15       288.302      0.123403       1.91883      -5.19879             0       4.93236      -4.95177             0       20.4094       7.13007             0        74.991             0             0      0.192769   7.47552e-15      0.161874        103780        103021        252366   1.36965e-14
    0.0307307       288.146       288.302      0.123864       1.64994      -5.27895             0       4.64753      -5.08546             0        20.068        6.4554             0       75.6157             0             0      0.192588   5.04124e-15       0.16266        103769        103020        252700    9.2365e-15
    0.0308984       288.143       288.302      0.124326       1.38105       -5.3591             0       4.36269      -5.21916             0       19.7265       5.78073             0       76.2404             0             0      0.192407   2.60697e-15      0.163447        103757        103018        253034   4.77645e-15
    0.0310661       288.138       288.301       0.12474       1.15272        -5.433             0       4.08486      -5.34939             0        19.494       5.11828             0       76.7046             0             0      0.192238   1.12006e-15      0.164184        103745        103017        253268   2.05215e-15
    0.0312337       288.132       288.301      0.125082      0.986761      -5.49728             0       3.81779      -5.47429             0        19.429       4.47464             0       76.9222             0             0      0.192086   1.09009e-15      0.164845        103732        103016        253347   1.99724e-15
    0.0314014       288.126       288.301      0.125424      0.820806      -5.56156             0       3.55073      -5.59919             0       19.3641       3.83099             0       77.1397             0             0      0.191934   1.06012e-15      0.165506        103720        103015        253426   1.94233e-15
    0.0315691       288.121       288.301      0.125766      0.654851      -5.62583             0       3.28366      -5.72409             0       19.2992       3.18735             0       77.3573             0             0      0.191782   1.03015e-15      0.166167        103707        103014        253505   1.88742e-15
    0.0317367       288.115         288.3      0.126108      0.488896      -5.69011             0       3.01659      -5.84899             0       19.2343        2.5437             0       77.5748             0             0      0.191629   1.00018e-15      0.166828        103695        103014        253584   1.83251e-15
    0.0319044       288.109         288.3      0.126451      0.322941      -5.75439             0       2.74953      -5.97389             0       19.1693       1.90006             0       77.7923             0             0      0.191477   9.70207e-16       0.16749        103683        103013        253664    1.7776e-15
    0.0320721       288.102         288.3      0.126706      0.205714        -5.805             0       2.49015      -6.09276             0       19.2037       1.29864             0       77.8646             0             0      0.191378   9.54103e-16      0.167921        103671        103012        253664   1.74809e-15
    0.0322397       288.096         288.3      0.126846       0.15312      -5.83749             0       2.24097      -6.20363             0       19.3696      0.753245             0       77.7442             0             0      0.191349    9.5639e-16      0.168046        103660        103011        253559   1.75228e-15
    0.0324074       288.089       288.299      0.126986      0.100526      -5.86998             0        1.9918      -6.31451             0       19.5356      0.207848             0       77.6239             0             0       0.19132   9.58678e-16      0.168172        103649        103011        253454   1.75648e-15
    0.0325751       288.082       288.299      0.127126     0.0479315      -5.90247             0       1.74262      -6.42538             0       19.7016     -0.337549             0       77.5035             0             0      0.191292   9.60965e-16      0.168298        103638        103010        253350   1.76067e-15
    0.0327427       288.075       288.299      0.127266   -0.00466276      -5.93496             0       1.49344      -6.53625             0       19.8676     -0.882947             0       77.3831             0             0      0.191263   9.63252e-16      0.168423        103627        103009        253245   1.76486e-15
    0.0329104       288.068       288.298      0.127406     -0.057257      -5.96745             0       1.24427      -6.64712             0       20.0335      -1.42834             0       77.2627             0             0      0.191234    9.6554e-16      0.168549        103616        103009        253140   1.76905e-15
    0.0330781       288.062       288.298      0.127536    -0.0590808      -5.98294             0       1.00486      -6.75042             0       20.2208      -1.87751             0       77.0085             0             0      0.191272     9.685e-16      0.168382        103606        103008        253003   1.77447e-15
    0.0332457       288.057       288.297      0.127655   -0.00264862       -5.9789             0       0.77667      -6.84502             0       20.4324      -2.21626             0       76.6007             0             0      0.191388   9.72231e-16      0.167879        103598        103008        252830   1.78131e-15
    0.0334134       288.052       288.297      0.127775     0.0537836      -5.97487             0      0.548479      -6.93963             0        20.644      -2.55501             0       76.1929             0             0      0.191503   9.75963e-16      0.167377        103590        103008        252656   1.78815e-15
    0.0335811       288.046       288.296      0.127894      0.110216      -5.97084             0      0.320289      -7.03423             0       20.8556      -2.89376             0       75.7851             0             0      0.191619   9.79695e-16      0.166874        103583        103007        252482   1.79498e-15
    0.0337487       288.041       288.296      0.128013      0.166648       -5.9668             0     0.0920981      -7.12883             0       21.0673      -3.23251             0       75.3773             0             0      0.191735   9.83426e-16      0.166371        103575        103007        252308   1.80182e-15
    0.0339164       288.035       288.295      0.128133       0.22308      -5.96277             0     -0.136093      -7.22344             0       21.2789      -3.57127             0       74.9696             0             0       0.19185   9.87158e-16      0.165869        103567        103007        252134   1.80866e-15
    0.0340841       288.031       288.295      0.128271      0.325678      -5.94239             0     -0.352014      -7.30868             0       21.4395      -3.77511             0       74.4438             0             0        0.1921   9.92608e-16      0.164784        103561        103007        251968   1.81864e-15
    0.0342518       288.027       288.294      0.128427      0.474167      -5.90575             0     -0.555739      -7.38462             0       21.5493      -3.84485             0       73.8008             0             0      0.192483   9.99766e-16      0.163119        103557        103007        251810   1.83176e-15
    0.0344194       288.023       288.294      0.128584      0.622655      -5.86912             0     -0.759464      -7.46057             0       21.6591       -3.9146             0       73.1578             0             0      0.192865   1.00692e-15      0.161455        103554        103007        251651   1.84487e-15
    0.0345871       288.018       288.293       0.12874      0.771144      -5.83248             0     -0.963189      -7.53651             0        21.769      -3.98434             0       72.5147             0             0      0.193248   1.01408e-15      0.159791        103550        103007        251493   1.85799e-15
    0.0347548       288.014       288.292      0.128896      0.919633      -5.79584             0      -1.16691      -7.61245             0       21.8788      -4.05408             0       71.8717             0             0      0.193631   1.02124e-15      0.158127        103546        103007        251334    1.8711e-15
    0.0349224        288.01       288.292      0.129053       1.06812      -5.75921             0      -1.37064      -7.68839             0       21.9886      -4.12383             0       71.2287             0             0      0.194014    1.0284e-15      0.156463        103542        103007        251176   1.88422e-15
    0.0350901       288.009       288.291      0.129274        1.2385      -5.71245             0      -1.56266      -7.75233             0       22.0435      -4.07025             0       70.4804             0             0       0.19462   1.03751e-15      0.153829        103541        103007        251051   1.90091e-15
    0.0352578       288.009       288.291      0.129552       1.42772      -5.65699             0      -1.74459      -7.80594             0       22.0511      -3.91048             0       69.6414             0             0      0.195417   1.04831e-15      0.150361        103542        103008        250955    1.9207e-15