#           y             T         TMean   TPrime2Mean           U_x           U_y           U_z       UMean_x       UMean_y       UMean_z UPrime2Mea... UPrime2Mea... UPrime2Mea... UPrime2Mea... UPrime2Mea... UPrime2Mea...            O2           H2O          C3H8             p         pMean   pPrime2Mean           CO2
         0.03       288.571       288.512      0.301622       12.4529     -0.480716             0       3.92186       1.04425             0       19.0166      -1.63643             0       51.4444             0             0      0.205823   2.07421e-09      0.105117        103715        103095        275188   3.80034e-09
    0.0301702       288.565       288.511      0.298778       12.4769     -0.418279             0       3.88879       1.08119             0       19.0655      -1.61542             0       51.3535             0             0       0.20591   2.04964e-09      0.104737        103717        103095        274715   3.75533e-09
    0.0303403       288.558       288.509      0.295933        12.501     -0.355841             0       3.85573       1.11812             0       19.1143       -1.5944             0       51.2626             0             0      0.205998   2.02508e-09      0.104357        103719        103096        274242   3.71032e-09
    0.0305105       288.551       288.508      0.293089        12.525     -0.293403             0       3.82267       1.15506             0       19.1632      -1.57339             0       51.1717             0             0      0.206085   2.00051e-09      0.103978        103720        103096        273769    3.6653e-09
    0.0306807       288.545       288.506      0.290245        12.549     -0.230965             0        3.7896         1.192             0        19.212      -1.55237             0       51.0808             0             0      0.206172   1.97594e-09      0.103598        103722        103096        273296   3.62029e-09
    0.0308509       288.538       288.505      0.287401       12.5731     -0.168528             0       3.75654       1.22894             0       19.2609      -1.53136             0       50.9899             0             0       0.20626   1.95137e-09      0.103219        103723        103097        272823   3.57527e-09
     0.031021       288.531       288.504      0.284672       12.5951     -0.102754             0       3.72559       1.26629             0       19.3292      -1.50587             0       50.8869             0             0       0.20635   1.92425e-09      0.102824        103725        103097        272346   3.52558e-09
    0.0311912       288.523       288.502      0.282758       12.6028    -0.0133145             0       3.70968       1.30656             0       19.5353      -1.44868             0        50.698             0             0      0.206467   1.87903e-09      0.102319        103726        103097        271839   3.44274e-09
    0.0313614       288.515         288.5      0.280844       12.6105     0.0761254             0       3.69376       1.34683             0       19.7415      -1.39148             0       50.5091             0             0      0.206583   1.83382e-09      0.101814        103727        103098        271332   3.35989e-09
    0.0315315       288.507       288.498      0.278929       12.6182      0.165565             0       3.67784        1.3871             0       19.9476      -1.33428             0       50.3202             0             0      0.206699    1.7886e-09      0.101309        103728        103098        270825   3.27705e-09
    0.0317017       288.499       288.496      0.277015       12.6259      0.255005             0       3.66193       1.42737             0       20.1537      -1.27709             0       50.1313             0             0      0.206815   1.74338e-09      0.100804        103730        103099        270318    3.1942e-09
    0.0318719       288.491       288.495      0.275101       12.6336      0.344445             0       3.64601       1.46764             0       20.3599      -1.21989             0       49.9424             0             0      0.206931   1.69817e-09      0.100299        103731        103099        269811   3.11136e-09
     0.032042       288.483       288.493      0.273477       12.6377      0.438078             0       3.63344       1.50809             0       20.6117      -1.14904             0       49.7336             0             0      0.207045   1.65268e-09     0.0998046        103732        103100        269304   3.02803e-09
    0.0322122       288.475       288.491      0.272736       12.6307      0.544487             0       3.63104       1.54907             0       21.0029      -1.03657             0       49.4639             0             0      0.207151   1.60639e-09     0.0993405        103732        103100        268796   2.94321e-09
    0.0323824       288.467       288.489      0.271996       12.6237      0.650897             0       3.62865       1.59005             0       21.3941     -0.924105             0       49.1942             0             0      0.207258   1.56009e-09     0.0988765        103732        103101        268288   2.85838e-09
    0.0325526       288.459       288.488      0.271255       12.6166      0.757306             0       3.62625       1.63103             0       21.7852     -0.811639             0       48.9246             0             0      0.207365    1.5138e-09     0.0984125        103732        103101        267780   2.77356e-09
    0.0327227       288.452       288.486      0.270514       12.6096      0.863715             0       3.62386       1.67202             0       22.1764     -0.699173             0       48.6549             0             0      0.207472   1.46751e-09     0.0979484        103733        103102        267272   2.68874e-09
    0.0328929       288.444       288.484      0.269774       12.6026      0.970125             0       3.62146         1.713             0       22.5676     -0.586707             0       48.3852             0             0      0.207578   1.42121e-09     0.0974844        103733        103103        266765   2.60392e-09
    0.0330631       288.436       288.483      0.269385       12.5918       1.07924             0       3.62187       1.75353             0       23.0565     -0.454638             0       48.0926             0             0      0.207671   1.37398e-09     0.0970797        103732        103103        266264    2.5174e-09
    0.0332332       288.428       288.481      0.269595       12.5748       1.19295             0       3.62703       1.79332             0       23.7115     -0.289275             0       47.7609             0             0      0.207741   1.32517e-09     0.0967758        103731        103104        265776   2.42796e-09
    0.0334034        288.42       288.479      0.269805       12.5577       1.30666             0       3.63219        1.8331             0       24.3665     -0.123912             0       47.4292             0             0      0.207811   1.27636e-09     0.0964719        103730        103105        265288   2.33853e-09
    0.0335736       288.412       288.477      0.270014       12.5406       1.42037             0       3.63735       1.87288             0       25.0215     0.0414518             0       47.0974             0             0      0.207881   1.22755e-09     0.0961681        103729        103105        264800    2.2491e-09
    0.0337437       288.404       288.476      0.270224       12.5236       1.53409             0       3.64251       1.91266             0       25.6765      0.206815             0       46.7657             0             0      0.207951   1.17874e-09     0.0958642        103727        103106        264312   2.15967e-09
    0.0339139       288.396       288.474      0.270434       12.5065        1.6478             0       3.64767       1.95244             0       26.3315      0.372179             0        46.434             0             0      0.208021   1.12993e-09     0.0955603        103726        103107        263824   2.07024e-09
    0.0340841       288.388       288.472      0.270961        12.486       1.76266             0       3.65541        1.9906             0       27.1159      0.558784             0       46.0742             0             0      0.208065   1.07669e-09     0.0953685        103724        103107        263352    1.9727e-09
    0.0342543       288.379       288.471      0.271814        12.462       1.87869             0        3.6658       2.02708             0       28.0329      0.767136             0       45.6856             0             0      0.208083   1.01892e-09     0.0952914        103721        103108        262897   1.86685e-09
    0.0344244       288.369        288.47      0.272667        12.438       1.99473             0       3.67618       2.06357             0       28.9499      0.975489             0        45.297             0             0        0.2081   9.61149e-10     0.0952143        103718        103109        262442     1.761e-09
    0.0345946        288.36       288.468      0.273519        12.414       2.11076             0       3.68656       2.10005             0       29.8668       1.18384             0       44.9084             0             0      0.208118   9.03378e-10     0.0951373        103715        103110        261987   1.65516e-09
    0.0347648       288.351       288.467      0.274372       12.3899        2.2268             0       3.69695       2.13654             0       30.7838       1.39219             0       44.5198             0             0      0.208136   8.45606e-10     0.0950602        103712        103111        261532   1.54931e-09
    0.0349349       288.342       288.466      0.275225       12.3659       2.34283             0       3.70733       2.17302             0       31.7008       1.60055             0       44.1313             0             0      0.208154   7.87835e-10     0.0949831        103709        103111        261077   1.44346e-09
    0.0351051       288.333       288.465       0.27605       12.3394       2.45925             0       3.72138       2.20653             0       32.7027       1.81269             0       43.7096             0             0      0.208146   7.33187e-10     0.0950175        103705        103112        260642   1.34333e-09
    0.0352753       288.323       288.464      0.276858       12.3114       2.57591             0       3.73771       2.23819             0       33.7572       2.02718             0       43.2675             0             0      0.208122   6.80472e-10     0.0951211        103701        103113        260219   1.24675e-09
    0.0354454       288.314       288.463      0.277666       12.2834       2.69256             0       3.75403       2.26985             0       34.8117       2.24168             0       42.8254             0             0      0.208098   6.27758e-10     0.0952246        103697        103114        259796   1.15017e-09
    0.0356156       288.304       288.463      0.278474       12.2554       2.80922             0       3.77035       2.30151             0       35.8662       2.45617             0       42.3833             0             0      0.208074   5.75044e-10     0.0953281        103693        103115        259372   1.05359e-09
    0.0357858       288.294       288.462      0.279282       12.2273       2.92588             0       3.78668       2.33318             0       36.9207       2.67066             0       41.9412             0             0       0.20805   5.22329e-10     0.0954316        103689        103116        258949   9.57004e-10
     0.035956       288.285       288.461       0.28009       12.1993       3.04253             0         3.803       2.36484             0       37.9752       2.88515             0       41.4991             0             0      0.208026   4.69615e-10     0.0955352        103685        103117        258526   8.60422e-10
    0.0361261       288.275       288.461       0.28017       12.1691       3.16045             0       3.82363       2.39209             0       39.0329       3.06511             0       41.0297             0             0       0.20799   4.30799e-10     0.0956916        103680        103118        258147   7.89304e-10
    0.0362963       288.265       288.461      0.279996       12.1382       3.27881             0       3.84576       2.41781             0       40.0918         3.233             0       40.5507             0             0       0.20795   3.96836e-10     0.0958665        103675        103119        257782   7.27078e-10
    0.0364665       288.256       288.461      0.279822       12.1072       3.39717             0       3.86789       2.44353             0       41.1506        3.4009             0       40.0717             0             0       0.20791   3.62874e-10     0.0960413        103671        103120        257418   6.64852e-10
    0.0366366       288.246       288.461      0.279648       12.0763       3.51554             0       3.89002       2.46924             0       42.2094       3.56879             0       39.5928             0             0       0.20787   3.28911e-10     0.0962162        103666        103121        257054   6.02626e-10
    0.0368068       288.236       288.461      0.279475       12.0453        3.6339             0       3.91216       2.49496             0       43.2683       3.73669             0       39.1138             0             0       0.20783   2.94949e-10     0.0963911        103662        103122        256689   5.40401e-10
     0.036977       288.226       288.461      0.279301       12.0144       3.75226             0       3.93429       2.52068             0       44.3271       3.90458             0       38.6349             0             0       0.20779   2.60986e-10      0.096566        103657        103123        256325   4.78175e-10
    0.0371471       288.217       288.462      0.277758       11.9788       3.87583             0       3.96137       2.53926             0       45.2861       4.03291             0       38.1325             0             0       0.20773   2.41049e-10     0.0968274        103653        103124        256016   4.41647e-10
    0.0373173       288.207       288.463      0.276001       11.9424       4.00022             0       3.98923       2.55673             0       46.2295       4.15504             0       37.6264             0             0      0.207667   2.23307e-10     0.0971023        103649        103125        255716   4.09141e-10
    0.0374875       288.198       288.463      0.274244       11.9061        4.1246             0       4.01709        2.5742             0        47.173       4.27717             0       37.1204             0             0      0.207604   2.05565e-10     0.0973773        103645        103127        255415   3.76634e-10
    0.0376577       288.189       288.464      0.272487       11.8698       4.24899             0       4.04495       2.59167             0       48.1164       4.39931             0       36.6143             0             0      0.207541   1.87823e-10     0.0976522        103641        103128        255115   3.44127e-10
    0.0378278        288.18       288.464       0.27073       11.8334       4.37338             0       4.07281       2.60914             0       49.0598       4.52144             0       36.1083             0             0      0.207478   1.70081e-10     0.0979272        103637        103129        254815    3.1162e-10
     0.037998        288.17       288.465      0.268973       11.7971       4.49777             0       4.10067       2.62661             0       50.0032       4.64357             0       35.6023             0             0      0.207415   1.52339e-10     0.0982021        103633        103130        254514   2.79113e-10
    0.0381682       288.162       288.465      0.265618       11.7556       4.62803             0       4.13487       2.63343             0       50.7297       4.78109             0       35.0647             0             0       0.20729      1.42e-10     0.0987462        103630        103131        254284   2.60171e-10
    0.0383383       288.153       288.466      0.262243        11.714       4.75836             0       4.16914       2.64012             0       51.4536        4.9188             0       34.5267             0             0      0.207164    1.3175e-10     0.0992934        103628        103132        254054   2.41391e-10
    0.0385085       288.144       288.466      0.258869       11.6724       4.88869             0       4.20342        2.6468             0       52.1775        5.0565             0       33.9888             0             0      0.207039     1.215e-10     0.0998407        103625        103134        253824    2.2261e-10
    0.0386787       288.135       288.467      0.255494       11.6308       5.01902             0       4.23769       2.65349             0       52.9013       5.19421             0       33.4509             0             0      0.206913   1.11249e-10      0.100388        103622        103135        253595   2.03829e-10
    0.0388488       288.126       288.467       0.25212       11.5892       5.14935             0       4.27197       2.66018             0       53.6252       5.33191             0       32.9129             0             0      0.206788   1.00999e-10      0.100935        103620        103136        253365   1.85049e-10
     0.039019       288.118       288.468      0.248647       11.5471       5.28002             0       4.30676       2.66559             0       54.3221         5.476             0       32.3702             0             0      0.206645   9.11696e-11      0.101554        103618        103137        253143    1.6704e-10
    0.0391892       288.111       288.468      0.244396       11.5009        5.4134             0       4.34571       2.66087             0       54.8045       5.67079             0       31.7901             0             0      0.206371   8.46871e-11      0.102746        103617        103138        252981   1.55163e-10
    0.0393594       288.104       288.468      0.240144       11.4546       5.54679             0       4.38466       2.65614             0       55.2869       5.86559             0       31.2099             0             0      0.206097   7.82045e-11      0.103937        103617        103140        252819   1.43285e-10
    0.0395295       288.097       288.468      0.235893       11.4084       5.68017             0       4.42361       2.65141             0       55.7693       6.06038             0       30.6297             0             0      0.205824    7.1722e-11      0.105129        103616        103141        252657   1.31408e-10
    0.0396997        288.09       288.467      0.231641       11.3621       5.81355             0       4.46256       2.64669             0       56.2517       6.25518             0       30.0495             0             0       0.20555   6.52394e-11       0.10632        103616        103142        252494   1.19531e-10
    0.0398699       288.083       288.467      0.227389       11.3159       5.94693             0       4.50151       2.64196             0       56.7341       6.44997             0       29.4693             0             0      0.205276   5.87569e-11      0.107512        103616        103143        252332   1.07654e-10
      0.04004       288.077       288.467      0.223238       11.2661       6.08062             0       4.54091       2.63512             0       57.1697       6.65116             0       28.8803             0             0      0.204956   5.28431e-11      0.108904        103616        103145        252186   9.68184e-11
    0.0402102       288.076       288.467      0.219414       11.2049       6.21532             0       4.58176       2.62141             0       57.4531       6.87313             0       28.2624             0             0      0.204485   4.87779e-11      0.110947        103618        103146        252092   8.93701e-11
    0.0403804       288.074       288.466       0.21559       11.1436       6.35002             0       4.62261        2.6077             0       57.7364       7.09509             0       27.6446             0             0      0.204015   4.47126e-11       0.11299        103620        103147        251997   8.19218e-11
    0.0405506       288.072       288.466      0.211766       11.0823       6.48471             0       4.66346       2.59399             0       58.0198       7.31705             0       27.0267             0             0      0.203545   4.06474e-11      0.115033        103622        103149        251903   7.44736e-11
    0.0407207       288.071       288.465      0.207942       11.0211       6.61941             0       4.70431       2.58028             0       58.3031       7.53902             0       26.4088             0             0      0.203075   3.65821e-11      0.117076        103624        103150        251808   6.70253e-11
    0.0408909       288.069       288.465      0.204118       10.9598        6.7541             0       4.74516       2.56657             0       58.5865       7.76098             0        25.791             0             0      0.202604   3.25169e-11      0.119119        103626        103151        251713    5.9577e-11
    0.0410611       288.069       288.464      0.200623       10.8941       6.88241             0       4.78583       2.55084             0       58.8232       7.96557             0       25.1674             0             0      0.202082   2.89964e-11      0.121388        103628        103152        251642   5.31268e-11
    0.0412312       288.073       288.463      0.197716       10.8202        6.9993             0       4.82619       2.53151             0       58.9765       8.13912             0       24.5334             0             0      0.201468   2.64492e-11       0.12406        103632        103154        251612   4.84599e-11
    0.0414014       288.077       288.462      0.194809       10.7464        7.1162             0       4.86655       2.51217             0       59.1298       8.31267             0       23.8995             0             0      0.200853    2.3902e-11      0.126731        103636        103155        251582    4.3793e-11
    0.0415716       288.081       288.461      0.191902       10.6726       7.23309             0        4.9069       2.49283             0       59.2831       8.48621             0       23.2656             0             0      0.200238   2.13549e-11      0.129403        103640        103156        251552   3.91261e-11
    0.0417417       288.085        288.46      0.188994       10.5987       7.34998             0       4.94726       2.47349             0       59.4364       8.65976             0       22.6317             0             0      0.199624   1.88077e-11      0.132075        103644        103158        251522   3.44592e-11
    0.0419119       288.088       288.459      0.186087       10.5249       7.46688             0       4.98761       2.45415             0       59.5897       8.83331             0       21.9978             0             0      0.199009   1.62605e-11      0.134747        103648        103159        251492   2.97923e-11
    0.0420821       288.095       288.458      0.183766         10.45       7.56521             0       5.02531       2.43296             0       59.7145       8.95242             0       21.3669             0             0      0.198349   1.42298e-11      0.137617        103653        103160        251485   2.60716e-11
    0.0422523       288.105       288.456      0.182075       10.3739       7.64363             0       5.06015       2.40978             0       59.8088        9.0131             0       20.7391             0             0      0.197639   1.27532e-11      0.140701        103658        103162        251502   2.33662e-11
    0.0424224       288.115       288.454      0.180383       10.2978       7.72206             0       5.09499       2.38661             0       59.9032       9.07378             0       20.1114             0             0       0.19693   1.12766e-11      0.143784        103664        103163        251518   2.06608e-11
    0.0425926       288.125       288.452      0.178691       10.2217       7.80048             0       5.12983       2.36343             0       59.9975       9.13447             0       19.4836             0             0      0.196221   9.79996e-12      0.146868        103669        103164        251535   1.79553e-11
    0.0427628       288.135       288.451      0.176999       10.1456        7.8789             0       5.16466       2.34026             0       60.0918       9.19515             0       18.8559             0             0      0.195511   8.32336e-12      0.149952        103675        103166        251551   1.52499e-11
    0.0429329       288.144       288.449      0.175307       10.0695       7.95732             0        5.1995       2.31709             0       60.1861       9.25583             0       18.2281             0             0      0.194802   6.84676e-12      0.153035        103680        103167        251568   1.25445e-11
    0.0431031       288.157       288.447      0.174509       9.97331        8.0194             0       5.22751       2.29126             0       60.2157       9.24124             0       17.6035             0             0      0.194143   5.85734e-12      0.155901        103686        103168        251617   1.07317e-11
    0.0432733       288.171       288.444      0.174292       9.86406       8.07085             0       5.25106       2.26371             0       60.2033       9.17768             0        16.981             0             0      0.193516   5.18482e-12      0.158625        103692        103170        251687   9.49956e-12
    0.0434434       288.185       288.441      0.174075       9.75481       8.12229             0       5.27462       2.23616             0       60.1908       9.11411             0       16.3585             0             0       0.19289    4.5123e-12      0.161348        103698        103171        251757   8.26738e-12
    0.0436136       288.199       288.438      0.173859       9.64556       8.17374             0       5.29817       2.20861             0       60.1784       9.05055             0        15.736             0             0      0.192263   3.83979e-12      0.164072        103704        103172        251827    7.0352e-12
    0.0437838       288.213       288.436      0.173642       9.53631       8.22519             0       5.32173       2.18107             0        60.166       8.98699             0       15.1136             0             0      0.191637   3.16727e-12      0.166795        103709        103173        251897   5.80302e-12
     0.043954       288.227       288.433      0.173425       9.42705       8.27664             0       5.34529       2.15352             0       60.1535       8.92343             0       14.4911             0             0       0.19101   2.49475e-12      0.169519        103715        103175        251968   4.57085e-12
    0.0441241       288.247       288.429      0.174005       9.28667       8.29484             0       5.36033       2.11968             0       59.9582       8.78876             0       13.8761             0             0      0.190492   2.14377e-12       0.17177        103721        103176        252089   3.92778e-12
    0.0442943       288.268       288.425       0.17488       9.13474        8.3007             0       5.37221       2.08351             0        59.695       8.62771             0        13.264             0             0      0.190015   1.91207e-12      0.173847        103726        103177        252229   3.50326e-12
    0.0444645       288.289       288.422      0.175755       8.98281       8.30657             0        5.3841       2.04734             0       59.4318       8.46666             0       12.6519             0             0      0.189538   1.68037e-12      0.175923        103731        103178        252369   3.07874e-12
    0.0446346        288.31       288.418      0.176631       8.83088       8.31243             0       5.39598       2.01117             0       59.1686       8.30561             0       12.0398             0             0       0.18906   1.44866e-12      0.177999        103736        103180        252509   2.65422e-12
    0.0448048       288.331       288.414      0.177506       8.67895       8.31829             0       5.40787         1.975             0       58.9054       8.14456             0       11.4277             0             0      0.188583   1.21696e-12      0.180075        103742        103181        252648    2.2297e-12
     0.044975       288.353        288.41      0.178381       8.52702       8.32416             0       5.41975       1.93883             0       58.6422       7.98352             0       10.8155             0             0      0.188105   9.85262e-13      0.182151        103747        103182        252788   1.80518e-12
    0.0451451       288.394       288.405      0.179763       8.39217       8.22571             0       5.42306       1.89152             0       58.1225       7.75429             0        10.237             0             0      0.187519   8.68194e-13      0.184701        103751        103183        252972   1.59069e-12
    0.0453153       288.438         288.4      0.181232       8.26026       8.10927             0       5.42488        1.8423             0       57.5586       7.51331             0       9.66425             0             0      0.186914    7.7089e-13      0.187333        103755        103184        253162   1.41241e-12
    0.0454855       288.483       288.394      0.182701       8.12836       7.99284             0       5.42671       1.79307             0       56.9947       7.27232             0       9.09149             0             0      0.186309   6.73586e-13      0.189965        103759        103185        253353   1.23414e-12