#           y             T         TMean   TPrime2Mean           U_x           U_y           U_z       UMean_x       UMean_y       UMean_z UPrime2Mea... UPrime2Mea... UPrime2Mea... UPrime2Mea... UPrime2Mea... UPrime2Mea...            O2           H2O          C3H8             p         pMean   pPrime2Mean           CO2
            0       288.476       288.012     0.0619203       22.0658             0             0       22.7659             0             0       5.96809             0             0             0             0             0          0.23   6.15039e-15   6.35644e-08        103768        103118        278495   1.12687e-14
  0.000500501       288.474       288.012     0.0619304       22.0468     -0.371936             0       22.7681   -0.00144942             0       5.98654      0.122608             0     0.0514899             0             0          0.23   1.88944e-13   7.57604e-07        103762        103118        278042    3.4618e-13
     0.001001       288.472       288.012     0.0619402       22.0278     -0.743866             0       22.7703   -0.00289174             0       6.00516      0.245219             0      0.103089             0             0          0.23   3.97781e-13   1.48371e-06        103757        103118        277587    7.2881e-13
    0.0015015       288.466       288.012     0.0618178       22.0316      -1.11245             0       22.7662  -0.000790591             0       6.10435      0.369577             0      0.209185             0             0      0.229996   1.36028e-11   1.82094e-05        103743        103118        276277   2.49229e-11
     0.002002        288.46       288.011     0.0616954       22.0352      -1.48137             0       22.7622    0.00128863             0       6.20385      0.494084             0      0.315828             0             0      0.229992   2.85597e-11    3.5691e-05        103730        103118        274964   5.23267e-11
    0.0025025       288.455       288.012     0.0615582       21.9908      -1.93443             0       22.7635   -0.00209275             0       6.38249      0.655819             0      0.558355             0             0      0.229944   4.79733e-10   0.000241405        103708        103118        273058    8.7896e-10
     0.003003        288.45       288.012     0.0614478       21.9464      -2.38757             0       22.7647   -0.00539439             0       6.56273      0.817533             0      0.801654             0             0      0.229895   1.01564e-09   0.000458068        103687        103118        271148   1.86084e-09
    0.0035035       288.529       288.017     0.0657857       21.9012       -2.8534             0       22.7552    0.00451456             0       7.00925      0.975899             0       1.17278             0             0      0.229427   1.55891e-08    0.00248853        103665        103117        268640   2.85621e-08
     0.004004       288.616       288.023     0.0719829       21.8551      -3.32128             0       22.7458     0.0143219             0       7.45832       1.13574             0       1.54811             0             0      0.228943   3.23064e-08    0.00459246        103644        103117        266131   5.91914e-08
    0.0045045       289.631       288.068      0.308727        21.696       -4.0425             0       22.7504     0.0115338             0       8.22295       1.47842             0       2.44521             0             0      0.226361   3.14868e-07     0.0158075        103624        103116        263406   5.76896e-07
   0.00500501       290.702       288.115      0.594421       21.5366      -4.76426             0       22.7545    0.00898621             0       8.99612       1.82018             0       3.35002             0             0      0.223729   6.28348e-07     0.0272419        103604        103115        260681   1.15125e-06
   0.00550551       297.367       288.365       5.72617       21.3485      -5.53975             0       22.7142     0.0302436             0       10.6139       2.07117             0       5.01811             0             0      0.216093   4.00284e-06     0.0603984        103598        103114        257950   7.33395e-06
   0.00600601       304.256       288.622       11.3468       21.1604      -6.31706             0       22.6739     0.0508994             0        12.227        2.3293             0       6.71571             0             0      0.208401   7.60477e-06     0.0937914        103592        103112        255227   1.39333e-05
   0.00650651       329.517        289.42       57.2174        20.969      -7.24439             0       22.6409     0.0220232             0        13.446       3.17521             0       10.8435             0             0      0.196189   2.99322e-05      0.146656        103598        103108        253124   5.48415e-05
   0.00700701       355.245       290.235       106.255       20.7793      -8.16594             0       22.6079   -0.00591564             0       14.6361       4.01532             0       14.9913             0             0      0.184001   5.35728e-05        0.1994        103604        103104        251027   9.81553e-05
   0.00750751       413.826        292.27       378.339       20.7145       -8.6804             0       22.5819     0.0321526             0       13.7863       4.44734             0       20.5447             0             0       0.17356    0.00016969      0.243616        103619        103098        249386   0.000310904
   0.00800801        472.84       294.377       677.884       20.6433      -9.18188             0       22.5455     0.0687076             0       12.9269        4.8396             0        26.107             0             0      0.163191   0.000291491      0.287463        103633        103091        247736   0.000534067
   0.00850851       558.461       300.905       2666.34       20.1718      -8.88441             0       21.8718     0.0122031             0       11.4807       2.78611             0       32.2099             0             0       0.15722   0.000762872        0.3086        103645        103084        245612    0.00139772
   0.00900901       643.365       307.432        4677.6       19.7179      -8.57419             0       21.1978    -0.0432665             0       10.0427       0.72052             0       38.2754             0             0      0.151312    0.00123504      0.329457        103657        103076        243465    0.00226283
   0.00950951       689.135       313.887       7933.33       20.2235       -7.5686             0       20.5102    -0.0422782             0       9.05208      -2.00562             0       42.3009             0             0      0.148822    0.00175026      0.335009        103662        103072        240090     0.0032068
      0.01001        734.19       320.257       11168.1       20.7359      -6.54714             0       19.8169    -0.0375063             0        8.0895      -4.69487             0       46.2252             0             0      0.146247    0.00226956      0.340891        103667        103069        236692    0.00415827
    0.0105105       744.184       322.464       13376.9       21.5805      -4.74795             0        18.844       0.15266             0       8.50209      -5.57624             0       45.1923             0             0      0.139465    0.00298922      0.362997        103661        103074        232208    0.00547682
     0.011011       753.701       324.648         15566       22.4066      -2.95712             0       17.8559      0.341591             0       8.94904      -6.41765             0       44.0784             0             0      0.132589    0.00369167      0.385684        103655        103079        227711    0.00676384
    0.0115115       741.999       325.892       16885.5       22.4128      -1.53778             0       16.1934      0.475606             0       10.9232      -5.48313             0       39.3627             0             0      0.121574    0.00362907       0.43421        103671        103088        222642    0.00664913
     0.012012       730.123       327.139         18209       22.4331     -0.126446             0       14.5325      0.607152             0         12.87      -4.52647             0       34.6117             0             0      0.110616    0.00355364      0.482618        103688        103096        217580    0.00651093
    0.0125125       711.196       328.507       19694.4       23.0315      0.958792             0       12.9382      0.638231             0       13.7028      -2.66993             0       28.4225             0             0      0.101997    0.00295673       0.52621        103719        103103        212838    0.00541729
     0.013013       693.242       329.841       21150.8       23.6121       2.04493             0       11.3672      0.666783             0        14.481     -0.828005             0        22.296             0             0     0.0933801    0.00238608      0.569521        103751        103110        208125    0.00437175
    0.0135135       711.724       329.918       21524.7       23.5247       3.16493             0       10.6699      0.600636             0       13.2142      0.466111             0       18.5165             0             0     0.0848644    0.00279885      0.602291        103761        103113        204471    0.00512801
     0.014014       730.744       329.928         21844       23.4165       4.26777             0       9.99731      0.536682             0       11.9384       1.72329             0       14.7887             0             0     0.0762951    0.00325078       0.63489        103771        103116        200845    0.00595603
    0.0145145       768.454       327.608       20266.1       22.5866         4.775             0       10.1848      0.548843             0       10.3468       1.69807             0       12.8536             0             0     0.0658656    0.00506234      0.661606        103782        103118        198165    0.00927516
     0.015015       805.402       325.281       18662.3       21.7771       5.26479             0       10.3709      0.559848             0       8.79583       1.67141             0       10.9514             0             0     0.0555059    0.00685157      0.688249        103792        103119        195514     0.0125533
    0.0155155       817.731       322.742       16224.5       21.6311       5.19065             0       10.5095      0.533496             0       8.55574       1.59809             0       10.1144             0             0     0.0474036    0.00791825      0.712508        103805        103119        193748     0.0145077
     0.016016       828.196       320.133       13759.5        21.484        5.1271             0       10.6625      0.504633             0       8.36661       1.49291             0       9.31419             0             0     0.0395203    0.00891541       0.73653        103818        103119        192002     0.0163347
    0.0165165       782.298       315.425       10471.7        21.306       5.38367             0       11.2503      0.399825             0       9.71922      0.423518             0        9.6264             0             0     0.0382658    0.00780906      0.753346        103833        103118        190868     0.0143077
     0.017017       736.014       310.673       7206.92       21.0822       5.64061             0       11.8997      0.290027             0       11.0958     -0.677872             0       9.93279             0             0     0.0371507    0.00670362      0.769547        103849        103117        189741     0.0122823
    0.0175175       678.757       304.636       4597.71       19.5545       5.90782             0       14.2995     0.0384481             0       13.1531      -2.68837             0       10.0739             0             0     0.0399973    0.00562377      0.768276        103859        103117        188821     0.0103038
     0.018018       621.695       298.695       2052.96       18.0215       6.16341             0       16.6997      -0.20487             0       15.1737      -4.65274             0       10.2217             0             0     0.0429916    0.00454755      0.766325        103868        103117        187899    0.00833196
    0.0185185       569.867       295.301       1234.31       16.3464        6.1079             0       19.1113     -0.226973             0       16.2143      -5.38161             0       10.5522             0             0     0.0499385    0.00356824      0.746195        103874        103116        186943    0.00653769
     0.019019       517.985       291.985       440.178       14.7389       6.04852             0       21.4611     -0.246429             0       17.1982      -6.06763             0       10.8679             0             0     0.0572346    0.00259289      0.724506        103880        103115        186015    0.00475066
    0.0195195       464.732        290.64       266.524       14.8449       5.89098             0        22.247     -0.198859             0       16.7478      -5.66915             0        10.813             0             0     0.0733716    0.00171769       0.66333        103879        103116        185784    0.00314712
      0.02002       412.114       289.329        98.062       15.0209       5.74707             0       23.0146     -0.152566             0       16.2899      -5.26862             0       10.7527             0             0     0.0898796   0.000864371      0.600317        103878        103117        185568    0.00158369
    0.0205205       374.754       288.834        54.191       16.8747       5.92996             0       23.3407      -0.13692             0       15.6544       -4.8189             0       10.5633             0             0       0.11529   0.000536418      0.493193        103870        103117        185723   0.000982818
     0.021021       338.191       288.353       11.9242       18.7386       6.12285             0       23.6505      -0.11746             0       15.0316      -4.35679             0       10.4155             0             0        0.1406   0.000218267      0.386408        103862        103116        185874   0.000399907
    0.0215215       319.823       288.214        6.2482        20.833       6.54375             0       23.5904    -0.0110061             0       14.6959      -3.61183             0       11.2172             0             0       0.16361   0.000123715      0.287337        103851        103115        185924   0.000226668
     0.022022        302.03       288.081      0.805916       22.8754       6.96611             0       23.5072     0.0958349             0       14.3853      -2.82165             0       12.0497             0             0      0.186187   3.26832e-05      0.190114        103841        103113        185986   5.98818e-05
    0.0225225       296.727        288.07      0.441632       23.7886       7.42033             0       22.9254      0.211097             0       14.6184      -1.04884             0       13.5499             0             0      0.199352   1.81638e-05      0.133032        103828        103111        186295   3.32795e-05
     0.023023        291.61       288.061     0.0930682       24.6866       7.88753             0       22.2933      0.332901             0       14.9592       0.79281             0       15.0618             0             0      0.212183   4.22261e-06     0.0773995        103815        103108        186596   7.73661e-06
    0.0235235       290.347       288.096     0.0705334       25.2715       8.62395             0        20.619      0.590402             0       17.5356       4.06209             0       16.8144             0             0      0.218065   2.27268e-06     0.0518542        103797        103104        186719   4.16397e-06
     0.024024       289.131       288.132     0.0492559        25.851       9.36942             0       18.8779      0.842248             0       20.4074       7.27418             0        18.614             0             0      0.223755   4.07369e-07      0.027138        103779        103100        186866   7.46377e-07
    0.0245245       288.867       288.186     0.0529177       26.3239       10.2946             0       15.8118      0.981931             0       29.1387       9.35212             0       21.3442             0             0      0.225659   2.20527e-07     0.0188672        103753        103095        187478   4.04047e-07
     0.025025       288.613       288.239     0.0569073       26.7174       11.1998             0       12.7513       1.10654             0       38.1016       11.2333             0       24.1369             0             0      0.227482   4.21148e-08     0.0109465        103727        103090        188092   7.71622e-08
    0.0255255        288.56       288.286     0.0671249       25.6025       11.7259             0       9.79648      0.944667             0       51.4667       9.37704             0        28.117             0             0      0.227774   2.38773e-08    0.00967824        103697        103083        188711   4.37476e-08
     0.026026        288.51       288.331     0.0772429       24.4037       12.2205             0       6.89836      0.775802             0       64.5763       7.44122             0       32.0875             0             0      0.228043   6.45468e-09    0.00851088        103666        103076        189324   1.18262e-08
    0.0265265       288.503       288.358     0.0855457       21.6772       12.1408             0       5.03469      0.479408             0       73.0292       4.05586             0       35.8818             0             0      0.227888   3.88996e-09    0.00918291        103637        103068        189817   7.12712e-09
     0.027027       288.497       288.384     0.0935858       18.9027       12.0398             0       3.20571      0.178875             0       80.9569      0.679016             0       39.6241             0             0      0.227733   1.43422e-09    0.00985868        103608        103061        190328   2.62776e-09
    0.0275275       288.495       288.401     0.0970258       15.2874       11.5666             0       1.98462     -0.194167             0       79.6843      -2.54875             0       42.4554             0             0      0.227562   8.87802e-10     0.0106001        103586        103053        191154   1.62662e-09
     0.028028       288.493       288.417      0.100314       11.6442       11.0825             0      0.784802     -0.568204             0       78.0893      -5.74993             0       45.1963             0             0      0.227391   3.64638e-10     0.0113408        103565        103046        192002   6.68085e-10
    0.0285285       288.485       288.429      0.101034       7.53003       10.4155             0    -0.0562769     -0.959004             0       71.0578      -8.50314             0       46.4139             0             0      0.227224   2.33494e-10     0.0120679        103556        103039        193213   4.27805e-10
     0.029029       288.476        288.44      0.101672       3.42141       9.75505             0     -0.887088      -1.34692             0       63.9189      -11.1658             0       47.5386             0             0      0.227028   1.08243e-10      0.012921        103547        103033        194455   1.98321e-10
    0.0295295       288.466       288.447      0.100988      -0.59745       9.20133             0      -1.55112      -1.68792             0        55.036      -12.3571             0       47.1568             0             0      0.226361   7.86948e-11     0.0158221        103553        103028        196187   1.44184e-10
      0.03003       288.457       288.455      0.100255       -4.5308        8.6597             0      -2.20694      -2.02516             0       46.2052      -13.4423             0       46.7091             0             0       0.22559    5.0157e-11     0.0191789        103560        103023        197941   9.18969e-11
    0.0305305       288.459       288.461     0.0987402      -7.12438        8.3073             0      -2.73404       -2.3033             0       38.1914      -12.8635             0       45.2312             0             0      0.223176   3.74456e-11     0.0296754        103579        103021        200032   6.86074e-11
     0.031031       288.464       288.466     0.0972556      -9.59379       7.96146             0       -3.2535       -2.5758             0       30.4033      -12.2034             0       43.7084             0             0      0.220637   2.49789e-11      0.040717        103598        103019        202146    4.5766e-11
    0.0315315       288.494       288.471     0.0962202      -10.1843       7.71502             0      -3.65752      -2.76283             0       26.0286      -10.3119             0       41.5082             0             0        0.2162   1.62127e-11     0.0600064        103616        103019        204593   2.97047e-11
     0.032032       288.526       288.475     0.0952547      -10.6975         7.475             0      -4.05072      -2.94466             0       21.9009      -8.40252             0        39.287             0             0      0.211793   7.80207e-12     0.0791693        103634        103020        207070   1.42949e-11
    0.0325325       288.573       288.476     0.0953128      -10.0786       7.32889             0      -4.28555       -3.0504             0        21.386      -6.22973             0       36.7582             0             0       0.20781   4.59162e-12     0.0964827        103644        103022        209972    8.4127e-12
     0.033033        288.62       288.478     0.0954116      -9.44117       7.18619             0       -4.5086      -3.15154             0       21.0012      -4.08619             0       34.2228             0             0      0.203983   1.54985e-12      0.113118        103652        103025        212928   2.83961e-12
    0.0335335       288.657       288.478     0.0960876      -8.54072        7.0918             0      -4.56508      -3.18755             0       22.4571      -2.35656             0       31.5926             0             0      0.202363   8.95316e-13      0.120162        103651        103029        216643   1.64039e-12
     0.034034       288.692       288.478     0.0967461       -7.6438       6.99667             0      -4.61148      -3.22065             0       23.9168     -0.664045             0       28.9746             0             0      0.200844   2.78414e-13      0.126763        103649        103033        220394   5.10107e-13
    0.0345345       288.717       288.479      0.097164      -6.79537       6.89131             0      -4.51969      -3.21376             0       25.4304       0.51985             0       26.5248             0             0      0.200722   1.77256e-13      0.127295        103642        103037        224635   3.24766e-13
     0.035035       288.741       288.479     0.0974933      -5.96081       6.78071             0      -4.42123      -3.20417             0       26.8775       1.66858             0       24.0933             0             0      0.200647   8.12602e-14      0.127621        103635        103041        228890   1.48884e-13
    0.0355355       288.761       288.482     0.0966451      -5.31046       6.60038             0      -4.23421      -3.15872             0       27.4419       2.35013             0       21.9058             0             0      0.201204   5.38514e-14      0.125198        103626        103044        233331   9.86658e-14
     0.036036       288.779       288.485     0.0956731      -4.67714       6.41435             0       -4.0416      -3.11036             0       27.9062       2.98905             0         19.74             0             0       0.20186   2.77479e-14      0.122349        103618        103048        237750   5.08393e-14
    0.0365365        288.77       288.491     0.0931071      -4.26328       6.15483             0      -3.77695      -3.02445             0       27.0802       3.07865             0       17.8542             0             0      0.203777   1.84679e-14      0.114013        103613        103051        241873   3.38366e-14
     0.037037       288.759       288.496     0.0905542       -3.8591       5.89466             0      -3.50838      -2.93525             0       26.1714        3.1313             0       15.9972             0             0       0.20576   9.63157e-15       0.10539        103609        103053        245960   1.76468e-14
    0.0375375       288.715       288.504     0.0881659      -3.57607       5.62634             0      -3.19067      -2.80488             0       24.2278       2.72164             0       14.5015             0             0      0.208568   6.34737e-15     0.0931823        103608        103055        249581   1.16296e-14
     0.038038       288.672       288.511     0.0858662      -3.28295       5.36205             0      -2.86995      -2.67218             0       22.2725       2.30265             0       13.0382             0             0      0.211318   3.24931e-15     0.0812224        103609        103057        253157   5.95334e-15
    0.0385385        288.63       288.518     0.0846456      -2.86723       5.14683             0      -2.51261      -2.51107             0       20.1757       1.77024             0       11.9696             0             0      0.213374   2.41435e-15     0.0722816        103614        103058        256167   4.42353e-15
     0.039039        288.59       288.525     0.0834859       -2.4318       4.93746             0      -2.15379      -2.34879             0       18.1253       1.24727             0       10.9262             0             0      0.215357   1.63137e-15     0.0636625        103620        103059        259138   2.98898e-15
    0.0395395       288.567        288.53     0.0830453       -1.7634       4.79734             0      -1.77742      -2.17275             0       16.6225      0.835889             0       10.1816             0             0      0.216465   1.46295e-15     0.0588466        103629        103060        261642    2.6804e-15
      0.04004       288.546       288.535     0.0826821      -1.07184       4.65868             0      -1.39964      -1.99688             0       15.1699      0.435274             0        9.4472             0             0      0.217526   1.30467e-15     0.0542337        103638        103060        264104    2.3904e-15
    0.0405405       288.541       288.539     0.0832094     -0.113883       4.53674             0      -1.00564      -1.82279             0       14.2942      0.158459             0        8.8292             0             0      0.218051   1.26296e-15     0.0519547        103649        103061        266080   2.31398e-15
     0.041041       288.536       288.542     0.0837579      0.856951       4.41523             0     -0.609798      -1.64921             0       13.4408     -0.109751             0       8.21374             0             0      0.218534   1.22423e-15     0.0498545        103660        103062        268022   2.24301e-15
    0.0415415       288.541       288.546      0.084545       1.97197       4.29854             0     -0.193325      -1.48147             0       12.8361      -0.28162             0       7.62672             0             0      0.218556   1.21884e-15     0.0497555        103670        103063        269583   2.23315e-15
     0.042042       288.546       288.549     0.0853125       3.08472       4.17642             0      0.224581      -1.31492             0       12.2529     -0.441666             0       7.03711             0             0      0.218519   1.21492e-15     0.0499198        103681        103064        271106   2.22596e-15
    0.0425425       288.546       288.554     0.0858654       4.17261       3.99498             0      0.658114       -1.1614             0        11.903     -0.472779             0        6.4193             0             0       0.21782   1.22693e-15     0.0529562        103689        103065        272205   2.24797e-15
     0.043043       288.547       288.558     0.0863916       5.24269        3.8052             0       1.09056      -1.00941             0       11.6011     -0.494478             0       5.80101             0             0      0.216973    1.2415e-15     0.0566408        103697        103067        273269   2.27465e-15
    0.0435435       288.554       288.562     0.0866333       6.12357        3.5267             0       1.51139      -0.87369             0       11.8106     -0.416124             0       5.17773             0             0      0.214541   1.28316e-15     0.0672151        103701        103069        273960   2.35098e-15
     0.044044       288.563       288.566     0.0868075       6.99135       3.24513             0       1.93002     -0.739736             0       12.0731     -0.331962             0       4.55825             0             0      0.212089   1.32509e-15     0.0778734        103705        103070        274622    2.4278e-15
    0.0445445       288.583        288.57     0.0862819       7.72335       2.93187             0       2.32584     -0.624126             0       12.8853     -0.187596             0        3.9781             0             0      0.209437   1.36978e-15     0.0894033        103704        103072        274981    2.5097e-15
     0.045045       288.603       288.573      0.085607       8.44378       2.62054             0       2.71659     -0.510818             0       13.7296    -0.0437861             0       3.40417             0             0      0.206935   1.41197e-15      0.100284        103703        103074        275327   2.58699e-15
    0.0455455       288.629       288.575     0.0834231       9.04726       2.32879             0       3.05599     -0.420785             0       14.8982     0.0943976             0       2.89313             0             0      0.205943   1.42878e-15      0.104596        103698        103077        275543   2.61779e-15