#           y             T         TMean   TPrime2Mean           U_x           U_y           U_z       UMean_x       UMean_y       UMean_z UPrime2Mea... UPrime2Mea... UPrime2Mea... UPrime2Mea... UPrime2Mea... UPrime2Mea...            O2           H2O          C3H8             p         pMean   pPrime2Mean           CO2
  1.11022e-19       288.451       288.557     0.0926093       7.47973   2.40649e-17             0       12.4736   3.11436e-22             0       34.6335   2.85867e-19             0   6.93408e-18             0             0      0.183421   2.64229e-15      0.202517        102552        103125        286356   4.84117e-15
  0.000500501       288.462       288.566     0.0914188       7.51834      0.108487             0       12.4291   1.40399e-06             0        34.228    0.00128872             0     0.0312596             0             0      0.183631   2.64051e-15      0.201604        102552        103125        286364    4.8379e-15
     0.001001       288.474       288.575     0.0902371       7.55665      0.217209             0       12.3845   4.48517e-06             0       33.8208     0.0026436             0     0.0626132             0             0      0.183842   2.63871e-15      0.200686        102552        103125        286373   4.83462e-15
    0.0015015        288.51       288.593     0.0934396        7.4453      0.443182             0       12.2871   0.000844486             0        32.644      0.037012             0      0.140864             0             0      0.184487   2.63415e-15      0.197881        102552        103125        286374   4.82625e-15
     0.002002       288.547       288.611     0.0966706         7.333      0.669678             0       12.1897    0.00167611             0       31.4661     0.0714581             0      0.219323             0             0      0.185134   2.62958e-15       0.19507        102552        103125        286375   4.81787e-15
    0.0025025       288.626       288.623      0.106977       6.98384       1.02627             0        12.102   0.000422574             0       30.0333      0.125268             0      0.349869             0             0      0.186096   2.62333e-15      0.190888        102552        103125        286369   4.80644e-15
     0.003003       288.705       288.635       0.11728       6.63467       1.38281             0       12.0145  -0.000844412             0       28.6025      0.179008             0      0.480691             0             0      0.187057   2.61707e-15      0.186706        102551        103124        286362   4.79496e-15
    0.0035035       288.804        288.64      0.127082       6.28298       1.73054             0       11.9541   -0.00433916             0       27.4925      0.221131             0      0.657037             0             0      0.188004   2.60736e-15      0.182589        102551        103124        286395   4.77716e-15
     0.004004       288.902       288.645      0.136836       5.93228       2.07743             0       11.8938   -0.00783388             0       26.3855       0.26315             0      0.833689             0             0      0.188949   2.59762e-15      0.178483        102550        103124        286427   4.75933e-15
    0.0045045       288.976       288.649      0.140784       5.70545       2.31916             0       11.8385    -0.0113262             0       25.6429      0.292134             0       1.04821             0             0      0.189581   2.58532e-15      0.175734        102549        103124        286439   4.73679e-15
   0.00500501       289.049       288.653      0.144636       5.47975       2.55982             0        11.783    -0.0147986             0       24.9033      0.321002             0       1.26313             0             0       0.19021   2.57303e-15         0.173        102549        103123        286451   4.71427e-15
   0.00550551       289.097       288.661      0.139107       5.36528       2.69398             0       11.7176     -0.016295             0       24.4627      0.338292             0       1.51768             0             0      0.190494   2.56191e-15      0.171767        102547        103123        286474   4.69389e-15
   0.00600601       289.144       288.668      0.133514       5.25071       2.82828             0       11.6521    -0.0177826             0       24.0254      0.355358             0       1.77284             0             0      0.190775   2.55082e-15      0.170543        102546        103123        286497   4.67358e-15
   0.00650651       289.173       288.677      0.122624       5.12762       2.97456             0       11.5835    -0.0185458             0       23.8575      0.353892             0       2.07821             0             0      0.190887   2.54265e-15      0.170057        102545        103122        286542   4.65861e-15
   0.00700701       289.202       288.687       0.11178       5.00325       3.12248             0       11.5149    -0.0193236             0       23.6929      0.352086             0       2.38444             0             0      0.190999   2.53452e-15      0.169571        102544        103122        286587   4.64372e-15
   0.00750751       289.216       288.693      0.104187        4.7883       3.38657             0       11.4553    -0.0211266             0       23.7582       0.32637             0       2.75047             0             0      0.191136   2.52975e-15      0.168976        102543        103121        286666   4.63498e-15
   0.00800801       289.229       288.699     0.0966511       4.57237       3.65268             0       11.3958    -0.0229575             0        23.825      0.300461             0       3.11754             0             0      0.191274   2.52502e-15      0.168372        102541        103121        286746   4.62632e-15
   0.00850851       289.233         288.7     0.0926653       4.29611       4.04311             0       11.3482    -0.0265039             0       23.9878      0.262697             0       3.54841             0             0      0.191537    2.5228e-15      0.167229        102540        103120        286872   4.62224e-15
   0.00900901       289.236       288.701     0.0886956       4.02017       4.43504             0       11.3008    -0.0300942             0       24.1481      0.225144             0       3.98034             0             0      0.191801   2.52061e-15      0.166082        102538        103120        286998   4.61822e-15
   0.00950951       289.232         288.7     0.0856088       3.76126       4.90812             0       11.2643    -0.0360752             0       24.1676      0.199095             0       4.46927             0             0      0.192108   2.51996e-15      0.164749        102536        103119        287176   4.61703e-15
      0.01001       289.228       288.699     0.0825356       3.50417        5.3817             0        11.228    -0.0421123             0       24.1813      0.173383             0        4.9591             0             0      0.192413   2.51933e-15      0.163423        102534        103119        287355   4.61589e-15
    0.0105105       289.219       288.697     0.0801236       3.33654       5.87992             0        11.201    -0.0508939             0       23.9073      0.164151             0       5.49314             0             0      0.192642   2.51988e-15      0.162426        102532        103118        287575   4.61689e-15
     0.011011        289.21       288.695     0.0777226       3.17204        6.3775             0       11.1741    -0.0597323             0       23.6268      0.154935             0       6.02791             0             0      0.192869   2.52046e-15      0.161437        102530        103117        287794   4.61795e-15
    0.0115115       289.193       288.693     0.0758134        3.1466       6.84651             0       11.1532    -0.0710949             0       23.0609       0.14642             0       6.59527             0             0      0.193021   2.52268e-15      0.160779        102528        103117        288009   4.62203e-15
     0.012012       289.176        288.69     0.0739129       3.12505       7.31393             0       11.1324    -0.0824993             0        22.489       0.13769             0       7.16311             0             0      0.193171   2.52494e-15      0.160125        102525        103116        288225   4.62617e-15
    0.0125125       289.152       288.687     0.0723694        3.2614       7.71671             0       11.1126    -0.0956041             0       21.6721       0.12021             0       7.74993             0             0      0.193279   2.52845e-15      0.159656        102523        103115        288480    4.6326e-15
     0.013013       289.128       288.684     0.0708307       3.40168       8.11737             0       11.0926     -0.108692             0       20.8485      0.103197             0       8.33636             0             0      0.193386   2.53196e-15       0.15919        102520        103115        288734   4.63902e-15
    0.0135135       289.106       288.682     0.0694733       3.68929       8.43868             0       11.0645     -0.121142             0       19.7734      0.103672             0       8.90829             0             0      0.193461   2.53524e-15      0.158865        102518        103114        288957   4.64503e-15
     0.014014       289.084        288.68      0.068124       3.98035       8.75779             0       11.0358     -0.133473             0       18.6917      0.105572             0       9.47838             0             0      0.193535   2.53851e-15      0.158543        102516        103113        289178   4.65102e-15
    0.0145145       289.058       288.679     0.0670562        4.3916       9.00048             0       10.9873     -0.141683             0       17.3775      0.156929             0       9.98485             0             0      0.193574   2.54143e-15      0.158373        102513        103112        289352   4.65637e-15
     0.015015       289.032       288.679      0.066001       4.80556       9.24119             0       10.9382     -0.149743             0       16.0596      0.209092             0       10.4889             0             0      0.193613   2.54434e-15      0.158206        102511        103111        289526    4.6617e-15
    0.0155155       289.002       288.678     0.0653546       5.30721       9.41782             0       10.8653     -0.152926             0       14.6264       0.28733             0       10.9146             0             0      0.193629   2.54688e-15      0.158133        102509        103111        289726   4.66635e-15
     0.016016       288.972       288.678     0.0647118       5.81077       9.59273             0       10.7919     -0.156071             0       13.1943      0.364207             0       11.3387             0             0      0.193646   2.54939e-15       0.15806        102507        103110        289924   4.67095e-15
    0.0165165        288.95       288.678     0.0641825       6.37235       9.71577             0       10.7031     -0.158079             0       11.7967      0.399896             0       11.7145             0             0      0.193667   2.55114e-15       0.15797        102506        103110        290078   4.67416e-15
     0.017017       288.928       288.677     0.0636603       6.93508        9.8372             0       10.6142     -0.160158             0       10.4048       0.43288             0       12.0888             0             0      0.193688   2.55287e-15       0.15788        102504        103109        290230   4.67733e-15
    0.0175175       288.911       288.677     0.0633382       7.53063       9.91319             0       10.5195     -0.164245             0       9.17501      0.389002             0        12.422             0             0      0.193711   2.55426e-15       0.15778        102504        103109        290315   4.67988e-15
     0.018018       288.893       288.677     0.0630273       8.12655       9.98745             0       10.4248     -0.168377             0       7.95606      0.342923             0        12.752             0             0      0.193733   2.55562e-15      0.157682        102503        103109        290396   4.68238e-15
    0.0185185       288.879       288.677     0.0630128       8.73241       10.0154             0       10.3272     -0.173697             0       7.02718       0.23792             0       12.9999             0             0      0.193752   2.55641e-15      0.157599        102503        103108        290378   4.68382e-15
     0.019019       288.865       288.676     0.0629991       9.33773       10.0413             0       10.2296      -0.17902             0       6.11404      0.131675             0       13.2431             0             0      0.193771   2.55717e-15      0.157517        102503        103108        290357    4.6852e-15
    0.0195195       288.854       288.677      0.063007       9.92957       10.0132             0       10.1312     -0.184432             0       5.59936   -0.00597897             0       13.3702             0             0       0.19379   2.55715e-15      0.157435        102503        103108        290221   4.68518e-15
      0.02002       288.843       288.678     0.0629934       10.5197       9.98249             0        10.033     -0.189874             0       5.10239     -0.144343             0       13.4924             0             0      0.193807    2.5571e-15      0.157359        102504        103107        290082   4.68509e-15
    0.0205205       288.842        288.68     0.0624626       11.0695       9.88697             0       9.93789     -0.196019             0       5.03067     -0.299744             0       13.4955             0             0      0.193791   2.55605e-15       0.15743        102505        103107        289890   4.68316e-15
     0.021021       288.841       288.682     0.0619041       11.6164       9.78831             0       9.84292     -0.202189             0       4.97504     -0.455344             0       13.4933             0             0      0.193773   2.55498e-15      0.157508        102507        103108        289697   4.68119e-15
    0.0215215       288.846       288.686     0.0607154       12.0964       9.61801             0       9.75063     -0.208925             0       5.28655     -0.615478             0       13.3704             0             0      0.193712   2.55339e-15      0.157776        102509        103108        289467   4.67829e-15
     0.022022       288.851       288.689     0.0595133       12.5724       9.44459             0       9.65824     -0.215619             0       5.61036     -0.775024             0       13.2418             0             0      0.193648   2.55178e-15      0.158053        102511        103108        289234   4.67534e-15
    0.0225225       288.857       288.693      0.058022       12.9615       9.20339             0       9.56394     -0.221418             0       6.20142     -0.921813             0       12.9871             0             0      0.193532    2.5497e-15      0.158558        102514        103109        288925   4.67153e-15
     0.023023       288.863       288.697     0.0565399        13.346       8.95945             0       9.46944     -0.227131             0        6.8007      -1.06732             0       12.7266             0             0      0.193411   2.54758e-15      0.159084        102517        103109        288612   4.66764e-15
    0.0235235       288.871       288.702     0.0552509       13.6355       8.65853             0       9.37102     -0.231064             0       7.57041      -1.18624             0       12.3474             0             0      0.193189   2.54466e-15      0.160049        102520        103110        288232   4.66229e-15
     0.024024       288.878       288.706     0.0539855         13.92       8.35522             0       9.27253     -0.234905             0       8.34494      -1.30327             0       11.9633             0             0      0.192963   2.54172e-15       0.16103        102523        103110        287853    4.6569e-15
    0.0245245       288.883        288.71     0.0531886        14.106       8.00445             0       9.17282     -0.236907             0       9.21516      -1.38298             0       11.4798             0             0      0.192671    2.5383e-15        0.1623        102526        103111        287473   4.65064e-15
     0.025025       288.888       288.714     0.0523974       14.2865       7.65138             0       9.07334     -0.238816             0       10.0864      -1.46025             0       10.9925             0             0      0.192379   2.53475e-15      0.163569        102529        103112        287092   4.64413e-15
    0.0255255       288.888       288.719     0.0517159       14.3645       7.25456             0       8.97829     -0.238925             0       10.9776      -1.49116             0       10.4316             0             0      0.192094    2.5286e-15      0.164809        102532        103112        286669   4.63287e-15
     0.026026       288.887       288.724     0.0510145       14.4369       6.85567             0       8.88377      -0.23894             0       11.8649      -1.51951             0       9.86844             0             0       0.19181   2.52213e-15      0.166043        102535        103113        286246   4.62102e-15
    0.0265265       288.879        288.73     0.0499494       14.4081       6.41937             0       8.79898     -0.237248             0       12.6816      -1.50131             0       9.26397             0             0      0.191552   2.50985e-15      0.167164        102538        103114        285803   4.59852e-15
     0.027027       288.871       288.737     0.0488505       14.3744       5.98212             0       8.71483     -0.235485             0       13.4892      -1.48101             0        8.6591             0             0      0.191294   2.49731e-15      0.168286        102541        103115        285360   4.57554e-15
    0.0275275       288.853       288.745     0.0471602        14.254       5.52839             0       8.64196     -0.232461             0       14.1371      -1.42389             0       8.04733             0             0      0.191034    2.4802e-15      0.169415        102544        103115        284899   4.54419e-15
     0.028028       288.834       288.752     0.0454938       14.1296       5.07531             0       8.56973     -0.229384             0       14.7702      -1.36577             0       7.43695             0             0      0.190778   2.46268e-15      0.170528        102547        103116        284438   4.51209e-15
    0.0285285       288.808       288.761     0.0442311       13.9379       4.63326             0       8.50806     -0.225405             0       15.1529      -1.29087             0       6.85003             0             0       0.19059   2.43821e-15      0.171345        102550        103117        283990   4.46726e-15
     0.029029       288.783        288.77     0.0430522       13.7438       4.19358             0       8.44706     -0.221353             0       15.5167      -1.21659             0       6.26609             0             0      0.190415   2.41342e-15      0.172106        102552        103117        283548   4.42184e-15
    0.0295295        288.76       288.776     0.0432354       13.5124       3.79237             0       8.39682     -0.216124             0       15.5739      -1.15252             0       5.73055             0             0       0.19045   2.38336e-15      0.171955        102554        103118        283206   4.36676e-15
      0.03003       288.738       288.782     0.0434532       13.2835       3.39604             0       8.34736     -0.210801             0       15.6147       -1.0898             0       5.19927             0             0      0.190509    2.3517e-15        0.1717        102556        103118        282872   4.30875e-15
    0.0305305       288.715       288.785      0.044213        13.095       3.07613             0       8.31012     -0.204005             0        15.398      -1.04809             0       4.73476             0             0      0.190949   2.29505e-15      0.169787        102558        103119        282664   4.20496e-15
     0.031031       288.692       288.787     0.0449498       12.9147       2.76347             0       8.27368     -0.197128             0       15.1733      -1.00697             0       4.27517             0             0      0.191396   2.23782e-15      0.167844        102560        103120        282460    4.1001e-15
    0.0315315       288.673       288.787     0.0453405       12.8576       2.56058             0       8.24951     -0.189003             0       14.8264     -0.974622             0       3.89003             0             0      0.191947   2.17174e-15      0.165445        102562        103120        282311   3.97904e-15
     0.032032       288.654       288.786     0.0456967       12.8084       2.36414             0       8.22589     -0.180831             0       14.4801     -0.941979             0       3.50962             0             0      0.192484   2.10703e-15      0.163114        102564        103121        282168   3.86047e-15
    0.0325325       288.651       288.783     0.0455497       12.8729       2.26204             0       8.21034     -0.171984             0       14.1429     -0.904949             0       3.19832             0             0      0.192794   2.06221e-15      0.161766        102566        103121        282124   3.77835e-15
     0.033033       288.648       288.781     0.0453734       12.9391       2.16264             0       8.19491     -0.163137             0       13.8108     -0.867617             0       2.89094             0             0       0.19309   2.01804e-15      0.160478        102568        103122        282086   3.69742e-15
    0.0335335       288.656       288.777     0.0447817       13.0289       2.10151             0       8.18113     -0.154296             0       13.5513     -0.826012             0       2.63895             0             0      0.193189   1.98313e-15      0.160048        102570        103122        282130   3.63347e-15
     0.034034       288.665       288.773      0.044159       13.1161       2.03982             0       8.16718     -0.145491             0       13.2964     -0.784571             0       2.38993             0             0       0.19327    1.9497e-15      0.159695        102572        103122        282177   3.57221e-15
    0.0345345       288.682       288.767     0.0431121       13.1664        1.9705             0       8.15099     -0.137172             0       13.1054     -0.745367             0       2.18143             0             0      0.193111   1.93637e-15      0.160384        102574        103123        282262   3.54779e-15
     0.035035       288.701       288.762     0.0420477       13.2123       1.89927             0       8.13466      -0.12891             0       12.9164     -0.706592             0       1.97516             0             0      0.192945   1.92401e-15      0.161109        102576        103123        282351   3.52514e-15
    0.0355355       288.725       288.755     0.0407527       13.2016       1.80261             0       8.11645     -0.121412             0       12.7529     -0.673512             0       1.79858             0             0      0.192671   1.92448e-15      0.162302        102578        103123        282516     3.526e-15
     0.036036        288.75       288.748     0.0394746       13.1838       1.70512             0        8.0983     -0.113977             0       12.5897     -0.640825             0       1.62382             0             0      0.192402   1.92498e-15       0.16347        102580        103123        282682   3.52692e-15
    0.0365365       288.773        288.74     0.0384153       13.0739       1.59696             0       8.08088     -0.107353             0       12.4298     -0.613201             0       1.47241             0             0      0.192206   1.92587e-15       0.16432        102582        103124        282860   3.52855e-15
     0.037037       288.796       288.731     0.0374056       12.9573        1.4892             0       8.06365     -0.100792             0       12.2701     -0.585765             0       1.32257             0             0      0.192019   1.92819e-15      0.165134        102584        103124        283039    3.5328e-15
    0.0375375       288.813       288.724     0.0370174        12.757       1.38657             0       8.04903    -0.0950109             0       12.1126     -0.560686             0       1.19227             0             0      0.191937    1.9484e-15      0.165493        102585        103124        283224   3.56984e-15
     0.038038        288.83       288.717     0.0366713       12.5574       1.28364             0       8.03458    -0.0892881             0        11.955     -0.535546             0       1.06341             0             0      0.191855   1.96903e-15       0.16585        102587        103124        283410   3.60763e-15
    0.0385385       288.839       288.711     0.0368362       12.3682       1.17701             0       8.02237    -0.0842718             0       11.7965     -0.509663             0      0.952153             0             0       0.19178   1.99459e-15      0.166176        102588        103124        283621   3.65446e-15
     0.039039       288.849       288.705     0.0370138       12.1883       1.06839             0       8.01016    -0.0792916             0       11.6368     -0.483519             0       0.84225             0             0      0.191702   2.01843e-15      0.166515        102589        103124        283833   3.69814e-15
    0.0395395       288.849       288.701      0.037342       12.1195      0.936072             0       7.99801    -0.0747372             0       11.4632     -0.454293             0      0.748407             0             0      0.191591   2.02188e-15      0.166997        102590        103124        284062   3.70446e-15
      0.04004       288.848       288.697      0.037674       12.0637      0.799841             0        7.9857    -0.0701975             0        11.288     -0.424854             0      0.655855             0             0      0.191472   2.02381e-15      0.167514        102591        103124        284293     3.708e-15
    0.0405405        288.83       288.693     0.0380505       12.1579      0.618579             0       7.97168    -0.0658252             0       11.0955     -0.392964             0      0.578146             0             0      0.191264   2.00829e-15      0.168418        102591        103124        284559   3.67956e-15
     0.041041        288.81        288.69     0.0384279        12.262      0.433233             0       7.95752    -0.0614567             0       10.9028     -0.361139             0       0.50164             0             0      0.191053   1.99244e-15      0.169336        102592        103125        284826   3.65052e-15
    0.0415415       288.762       288.688     0.0388173       12.4765      0.202153             0       7.94175    -0.0571302             0       10.7096     -0.330039             0        0.4386             0             0      0.190804   1.97294e-15      0.170419        102593        103125        285093   3.61479e-15
     0.042042       288.713       288.686     0.0392056       12.6862    -0.0263823             0       7.92591    -0.0528007             0       10.5181     -0.299163             0       0.37659             0             0      0.190542   1.95805e-15      0.171555        102593        103125        285357   3.58752e-15
    0.0425425       288.661       288.684     0.0395838       12.8436     -0.227176             0       7.90926    -0.0484389             0       10.3443     -0.270734             0      0.325812             0             0      0.190147   1.99353e-15      0.173274        102593        103125        285590   3.65252e-15
     0.043043       288.612       288.683     0.0399652       12.9874     -0.417595             0       7.89248    -0.0441021             0       10.1719     -0.242591             0      0.275889             0             0      0.189744   2.03156e-15      0.175027        102594        103125        285823    3.7222e-15
    0.0435435       288.593       288.683     0.0403801       12.9868     -0.497743             0       7.87427    -0.0400304             0       10.0148     -0.217482             0      0.235045             0             0      0.189256   2.09675e-15       0.17715        102594        103125        286069   3.84163e-15
     0.044044       288.578       288.683     0.0407875       12.9831     -0.574658             0       7.85546    -0.0359917             0       9.85688     -0.192359             0       0.19489             0             0      0.188801   2.15828e-15      0.179124        102594        103125        286312   3.95437e-15
    0.0445445       288.607       288.682     0.0411169       12.9469     -0.618058             0       7.83051    -0.0322948             0       9.68987     -0.167105             0      0.161872             0             0        0.1887   2.18197e-15      0.179564        102594        103125        286536   3.99778e-15
     0.045045       288.644       288.682     0.0414173       12.9043     -0.661962             0       7.80365    -0.0285884             0       9.51538     -0.141315             0      0.129418             0             0      0.188696    2.2002e-15      0.179585        102594        103125        286755   4.03118e-15
    0.0455455       288.758       288.681     0.0414254       12.7984     -0.710947             0       7.75762    -0.0247859             0       9.26521     -0.110103             0      0.102665             0             0      0.189667   2.16315e-15      0.175361        102594        103125        286923    3.9633e-15