#           y             T         TMean   TPrime2Mean           U_x           U_y           U_z       UMean_x       UMean_y       UMean_z UPrime2Mea... UPrime2Mea... UPrime2Mea... UPrime2Mea... UPrime2Mea... UPrime2Mea...            O2           H2O          C3H8             p         pMean   pPrime2Mean           CO2
  1.11022e-19       288.385       288.017     0.0832482       32.5956   -5.0255e-16             0       22.7737  -3.83619e-16             0       11.8915  -4.36765e-17             0   9.96332e-17             0             0      0.229769   4.17621e-06   0.000959492        103918        103093        226428    7.6516e-06
  0.000500501        288.56        288.02     0.0838519       32.6479     -0.203955             0       22.7753     0.0139777             0       11.9198       -0.1363             0     0.0324517             0             0      0.229134   2.58553e-05    0.00349315        103906        103093        226318   4.73717e-05
     0.001001        288.74       288.022     0.0846703       32.7001     -0.408078             0       22.7769      0.027955             0       11.9481     -0.272609             0     0.0650405             0             0      0.228492   4.80184e-05    0.00605379        103894        103093        226208   8.79786e-05
    0.0015015       291.374       288.051      0.192582       32.7437     -0.696396             0       22.7804     0.0417532             0       12.0138     -0.413748             0      0.166026             0             0      0.224178   0.000311712     0.0220714        103878        103093        226030   0.000571114
     0.002002       294.074       288.082      0.318587       32.7871     -0.985412             0        22.784     0.0555455             0         12.08     -0.554929             0      0.267468             0             0      0.219824   0.000581036     0.0382038        103861        103092        225852    0.00106457
    0.0025025       313.181       288.286          4.95       32.7702      -1.44834             0       22.7913     0.0678659             0        12.259     -0.706625             0      0.482606             0             0      0.205581    0.00225232     0.0829096        103858        103092        225649    0.00412668
     0.003003        332.49       288.494       9.77214       32.7514      -1.91354             0       22.7987     0.0801849             0       12.4387     -0.858655             0      0.699202             0             0      0.191303    0.00393939      0.127609        103854        103092        225447    0.00721771
    0.0035035       385.348       289.132       46.1917       32.4202      -2.75381             0       22.8226     0.0922777             0       12.7271      -1.06602             0       1.15725             0             0      0.171107    0.00824126      0.171219        103864        103091        225348     0.0150995
     0.004004       438.815       289.775       83.5585       32.0976      -3.59643             0       22.8468      0.104339             0       13.0172      -1.27449             0       1.61784             0             0       0.15088     0.0125838      0.214545        103873        103090        225251     0.0230558
    0.0045045       567.669       290.907       238.385       32.8633      -4.73078             0       22.9186       0.11249             0       13.5242      -1.62049             0        2.3938             0             0      0.126871     0.0219658      0.222624        103871        103089        225309     0.0402454
   0.00500501       697.643       292.044       396.553       33.6579      -5.86259             0        22.991      0.120648             0       14.0328      -1.96769             0       3.17042             0             0      0.102773     0.0314079      0.230472        103869        103087        225369     0.0575451
   0.00550551       938.484       293.567       885.586       37.3186      -6.74274             0        23.132        0.1296             0       14.7102      -2.43404             0       4.01225             0             0     0.0698659     0.0468031      0.215565        103850        103086        225498     0.0857519
   0.00600601       1178.34       295.091       1376.48       40.9773      -7.63058             0       23.2716      0.138531             0       15.3866       -2.9016             0       4.85229             0             0     0.0371304     0.0621164      0.200753        103831        103085        225625      0.113809
   0.00650651       1337.11       296.602       2020.51       44.4743       -9.1507             0       23.3015       0.14583             0       15.9756      -3.46818             0       5.54478             0             0     0.0185197     0.0706923      0.193732        103825        103083        225555      0.129522
   0.00700701       1493.83       298.108       2662.11        47.921      -10.6605             0       23.3265      0.153228             0       16.5572      -4.03007             0       6.23368             0             0   0.000168407     0.0791327      0.186975        103820        103082        225483      0.144986
   0.00750751       1506.42       299.224       3132.46       47.8257      -11.4451             0       23.0048      0.167615             0        16.608      -4.26176             0       6.66962             0             0   8.55132e-05     0.0780289      0.198758        103824        103081        225240      0.142963
   0.00800801       1518.94        300.34       3603.59       47.7245      -12.2125             0       22.6746      0.182302             0       16.6544      -4.48628             0       7.10306             0             0   3.91576e-06     0.0769172      0.210616        103829        103080        224995      0.140927
   0.00850851       1526.82       301.413       4122.51       47.2615      -11.9245             0       21.8264      0.215386             0       16.4323      -4.26939             0       7.38224             0             0   2.03985e-06     0.0753215      0.227117        103825        103079        224573      0.138003
   0.00900901       1534.58         302.5       4656.69       46.7989      -11.6369             0         20.97      0.248441             0       16.2071      -4.04706             0       7.65507             0             0    1.9596e-07     0.0737179      0.243699        103821        103078        224147      0.135065
   0.00950951       1535.31       304.374       6023.45       46.3546      -11.3698             0       19.6652       0.27988             0       15.8176      -3.52781             0       7.58119             0             0   9.84148e-08     0.0716868      0.264685        103828        103078        223541      0.131344
      0.01001       1535.26       306.275       7449.95       45.8929      -11.0943             0       18.3606      0.310943             0       15.4545      -3.00159             0       7.50404             0             0   5.49907e-09     0.0696167      0.286067        103834        103077        222932      0.127551
    0.0105105        1497.2         309.5       11803.5        44.581      -10.4056             0        17.067      0.323631             0       16.3853      -2.13418             0       7.26688             0             0   1.39425e-07     0.0656369      0.326877        103839        103078        222185      0.120259
     0.011011       1458.57       312.691       16105.9       43.2735      -9.72334             0       15.7841      0.334979             0       17.3335      -1.28495             0       7.03588             0             0   4.62954e-07     0.0616363      0.367897        103844        103078        221437      0.112929
    0.0115115        1394.2       314.377         18141       42.1659      -9.32552             0       14.9694      0.286739             0       19.0493      -1.24455             0       7.07896             0             0   9.21517e-06       0.05671      0.418299        103847        103078        220625      0.103903
     0.012012        1330.3       316.008       20074.8       41.0537      -8.93706             0       14.1666      0.238218             0       20.7621      -1.22759             0       7.12981             0             0   2.45898e-05     0.0518397      0.468097        103850        103078        219813       0.09498
    0.0125125       1285.47       315.419       17889.1       39.7564      -8.92922             0       13.8473       0.17833             0       22.3519      -2.16394             0        7.4967             0             0   0.000309277     0.0492504      0.493381        103850        103077        219033      0.090236
     0.013013       1240.05       314.818       15708.3       38.4445      -8.90819             0        13.536      0.118303             0       23.9537       -3.1053             0       7.87601             0             0   0.000875096     0.0466375      0.517686        103850        103076        218252     0.0854485
    0.0135135       1172.26       313.742       13712.1       36.5905      -8.39336             0       13.5219     0.0530728             0       26.0049      -4.23379             0       8.72055             0             0     0.0119725     0.0431359      0.505309        103844        103075        217439     0.0790331
     0.014014       1101.65       312.633       11705.1       34.7346      -7.86657             0       13.5148    -0.0117832             0       28.0514         -5.36             0       9.57688             0             0     0.0236744     0.0394352       0.49235        103837        103074        216626     0.0722526
    0.0145145       933.499       310.413       9324.71       32.8109      -6.92465             0       13.7544    -0.0636501             0        29.938      -6.40674             0       10.8422             0             0     0.0563607     0.0288175      0.459205        103832        103072        215826     0.0527991
     0.015015        766.08       308.185       6963.16       30.9263      -6.00662             0       14.0015     -0.115252             0       31.8359      -7.44338             0       12.1184             0             0     0.0890238     0.0182699      0.425443        103827        103070        215027     0.0334739
    0.0155155        622.36       305.741       5210.66       30.3056      -5.86075             0       14.4922     -0.158284             0       34.1007      -8.15339             0       13.7441             0             0      0.120937    0.00998705      0.371726        103822        103067        214259     0.0182981
     0.016016        481.61       303.318       3491.44        29.707      -5.72196             0       14.9909     -0.200569             0       36.3749      -8.84571             0       15.3754             0             0      0.152371     0.0019419      0.317649        103818        103064        213503    0.00355792
    0.0165165       430.669       301.523       2779.09       29.7738      -5.79747             0       15.7328     -0.220218             0       38.9358      -9.00329             0       17.1759             0             0       0.16933    0.00108674       0.25269        103812        103061        213098    0.00199112
     0.017017       380.397       299.737       2076.46       29.8406      -5.87529             0       16.4832     -0.237995             0       41.5033       -9.1152             0       18.9773             0             0      0.186075   0.000256767      0.188402        103806        103057        212716   0.000470444
    0.0175175       349.128       298.185       1650.18       29.9067      -6.01887             0       17.4738     -0.202557             0       44.2613      -7.92966             0       20.8015             0             0      0.196738   0.000142162      0.143203        103793        103053        212956   0.000260467
     0.018018       318.536       296.639       1229.03       29.9619      -6.16823             0       18.4595     -0.165599             0       47.0113      -6.70892             0       22.6272             0             0      0.207184   3.11721e-05      0.098912        103779        103049        213222   5.71131e-05
    0.0185185       306.062       295.257       944.925       29.7251      -6.47258             0       19.3162    -0.0879034             0       49.5463      -4.54586             0       24.4953             0             0      0.211807   1.69941e-05     0.0789436        103759        103044        214163   3.11364e-05
     0.019019       293.967       293.887       665.194       29.4661      -6.78001             0       20.1574    -0.0113185             0        52.026      -2.38749             0       26.3667             0             0      0.216264   3.29914e-06     0.0596917        103738        103040        215131   6.04464e-06
    0.0195195       291.481       292.809       496.058       28.6448      -7.16543             0        20.603     0.0371583             0       53.1047     -0.347507             0       28.3225             0             0      0.216523   1.83048e-06     0.0585792        103719        103035        216760   3.35378e-06
      0.02002        289.08       291.746         330.2       27.7971      -7.54812             0       21.0375     0.0846379             0       54.0875       1.67692             0       30.2909             0             0       0.21671   4.12664e-07     0.0577792        103701        103030        218414   7.56078e-07
    0.0205205       288.738       291.064       242.993       26.3131      -7.86535             0       21.2039      0.108185             0       52.7699       3.32821             0       32.5604             0             0      0.215169   2.14984e-07     0.0644815        103687        103024        220667   3.93891e-07
     0.021021       288.409       290.395       157.732       24.8333      -8.17992             0       21.3613      0.130761             0       51.3798       4.96264             0       34.8403             0             0       0.21363    2.5102e-08     0.0711714        103672        103019        222933   4.59915e-08
    0.0215215       288.374       290.006       116.851       23.4478      -8.43383             0       21.3116      0.131168             0       48.3369       6.21253             0       37.3583             0             0      0.212157    1.3082e-08     0.0775762        103661        103013        225485   2.39687e-08
     0.022022        288.34       289.623       76.8387       22.0971       -8.6898             0        21.251      0.129965             0       45.2728        7.4445             0       39.8805             0             0      0.210729   1.55804e-09     0.0837869        103651        103008        228046   2.85462e-09
    0.0225225        288.31       289.355       55.7114       21.5003      -8.99029             0       20.9537      0.093788             0        41.745       8.28728             0       42.4933             0             0       0.21027   8.11754e-10     0.0857792        103640        103002        230779   1.48728e-09
     0.023023       288.279       289.091       35.0362       20.9149       -9.2882             0       20.6439     0.0554435             0       38.2573        9.1082             0       45.1079             0             0      0.209856   9.76468e-11     0.0875794        103628        102997        233524   1.78907e-10
    0.0235235        288.24       288.895       23.7374       20.5652      -9.53261             0       20.0743     -0.027863             0        35.598       9.47596             0       47.7604             0             0      0.210358   5.09631e-11      0.085397        103612        102991        236507   9.33739e-11
     0.024024       288.201       288.703        12.753       20.1934      -9.77811             0       19.5007     -0.113325             0       33.0196       9.83334             0       50.4158             0             0      0.210882   6.37507e-12     0.0831204        103595        102986        239505   1.16803e-11
    0.0245245       288.175       288.584       8.00501       19.3825      -10.0454             0        18.849     -0.241539             0       32.0456       9.98464             0       53.1302             0             0      0.211835   3.35183e-12     0.0789786        103574        102981        242807   6.14118e-12
     0.025025       288.151       288.467        3.4266       18.5586      -10.3161             0       18.2021     -0.370793             0       31.0986       10.1425             0       55.8488             0             0      0.212775   4.70247e-13     0.0748916        103553        102975        246121    8.6158e-13
    0.0255255       288.155       288.409       2.06929       17.4869      -10.6519             0       17.6451     -0.519809             0       30.6623       10.4252             0       58.6476             0             0      0.213475   2.80146e-13     0.0718482        103528        102970        249682    5.1328e-13
     0.026026       288.161       288.353      0.768247       16.4203      -10.9904             0       17.0888     -0.669689             0       30.1992       10.7059             0       61.4443             0             0      0.214137    9.8808e-14     0.0689672        103504        102965        253249   1.81035e-13
    0.0265265       288.189       288.328      0.492995       15.4465      -11.3748             0       16.5448     -0.835322             0       29.2468       10.9492             0       64.2045             0             0      0.214119   7.72095e-14     0.0690465        103480        102958        256903   1.41462e-13
     0.027027       288.216       288.305      0.229904       14.4838       -11.758             0        15.995      -1.00221             0       28.2813       11.1784             0       66.9582             0             0      0.214065   5.58852e-14     0.0692782        103457        102952        260558   1.02392e-13
    0.0275275       288.242       288.297      0.179844       13.7178      -12.1179             0       15.3447        -1.191             0        27.088       11.1598             0       69.5994             0             0      0.213398   3.93649e-14     0.0721798        103433        102945        264223   7.21239e-14
     0.028028       288.267       288.288      0.132128       12.9567      -12.4808             0       14.6893      -1.38092             0       25.9064       11.1306             0       72.2251             0             0      0.212708   2.32432e-14     0.0751831        103410        102938        267881   4.25859e-14
    0.0285285       288.276       288.284      0.123918       12.2778       -12.892             0       13.9471      -1.58997             0       24.9231       10.9208             0        74.587             0             0      0.211623   1.38391e-14     0.0799004        103387        102931        271405   2.53558e-14
     0.029029       288.284       288.279      0.116285       11.5983      -13.3078             0       13.2008       -1.7997             0       23.9688        10.709             0       76.9217             0             0       0.21053   4.87851e-15     0.0846506        103365        102924        274896   8.93834e-15
    0.0295295       288.278       288.272      0.118017       10.9093      -13.7994             0       12.3871      -2.02042             0       23.4832       10.4653             0       78.8141             0             0      0.209314   3.12033e-15     0.0899355        103344        102917        277844   5.71703e-15
      0.03003       288.272       288.265      0.119837       10.2193      -14.2945             0       11.5696      -2.24141             0       23.0399       10.2311             0       80.6671             0             0      0.208063    1.4626e-15     0.0953744        103325        102910        280738   2.67975e-15
    0.0305305       288.248       288.259       0.12304       9.51293       -14.843             0       10.6931      -2.46666             0       23.2586        10.145             0       81.9039             0             0      0.206257   1.37857e-15      0.103223        103313        102904        282806   2.52579e-15
     0.031031       288.223       288.254      0.126062       8.80436      -15.3911             0       9.81228      -2.69121             0       23.5276       10.0753             0       83.0967             0             0      0.204462   1.30664e-15       0.11103        103301        102898        284814   2.39401e-15
    0.0315315       288.183       288.252      0.126325       8.06227      -15.9335             0       8.86647       -2.9053             0       24.5577       10.2524             0       83.6237             0             0      0.202815   1.41782e-15      0.118191        103297        102892        285903   2.59771e-15
     0.032032       288.144        288.25      0.126493       7.31535      -16.4739             0       7.91831       -3.1185             0       25.6204       10.4409             0       84.1128             0             0       0.20124    1.5287e-15       0.12504        103294        102887        286939   2.80086e-15
    0.0325325       288.114       288.248      0.125272       6.49765      -16.9837             0       6.93562      -3.31885             0       27.1607       10.7964             0       84.0451             0             0      0.200714   1.63513e-15      0.127326        103296        102883        287192   2.99587e-15
     0.033033       288.086       288.247      0.124056       5.67392        -17.49             0        5.9529      -3.51806             0       28.6856       11.1515             0        83.948             0             0      0.200214    1.7403e-15      0.129503        103298        102878        287420   3.18855e-15
    0.0335335       288.083       288.246      0.122923       4.76486      -17.9469             0       4.96961      -3.70115             0       29.9941       11.5005             0       83.4327             0             0      0.200067   1.82748e-15      0.130142        103303        102875        287298   3.34829e-15
     0.034034       288.081       288.245      0.121852       3.85063      -18.3973             0       3.98691      -3.88297             0       31.2392       11.8323             0       82.8892             0             0      0.199918   1.91505e-15       0.13079        103308        102873        287175   3.50873e-15
    0.0345345       288.098       288.246      0.121647       2.86546       -18.758             0       3.01217      -4.04742             0       31.6144       11.9285             0       81.9588             0             0      0.199744   2.00785e-15      0.131547        103311        102871        287026   3.67875e-15
     0.035035       288.115       288.246      0.121521       1.87805      -19.1093             0       2.03769      -4.21074             0       31.9111       11.9935             0       80.9954             0             0      0.199577   2.09941e-15      0.132274        103314        102869        286880   3.84651e-15
    0.0355355       288.143       288.248      0.122456      0.860962      -19.3363             0       1.06679      -4.35901             0       31.1643       11.6447             0       79.5945             0             0      0.199499   2.17464e-15      0.132613        103317        102869        286788   3.98435e-15
     0.036036       288.171       288.249      0.123465     -0.154785      -19.5539             0     0.0957542      -4.50625             0       30.3774       11.2643             0       78.1541             0             0      0.199428   2.24784e-15      0.132922        103320        102868        286689   4.11847e-15
    0.0365365       288.205       288.251      0.125426      -1.15319      -19.6504             0     -0.876868      -4.64029             0       29.0748        10.476             0       76.2038             0             0      0.199443   2.29486e-15      0.132858        103328        102870        286499   4.20461e-15
     0.037037       288.241       288.252      0.127475      -2.14591      -19.7384             0      -1.84927      -4.77259             0       27.7971       9.67663             0       74.2137             0             0      0.199448   2.34083e-15      0.132836        103336        102871        286282   4.28884e-15
    0.0375375       288.283       288.253      0.130614      -3.06762       -19.718             0      -2.81897      -4.88306             0       26.8331        8.7384             0       71.7259             0             0      0.199336   2.37373e-15      0.133323        103350        102874        285723   4.34911e-15
     0.038038       288.325       288.254      0.133828      -3.98135      -19.6904             0      -3.78688      -4.99077             0        25.944       7.82196             0       69.2046             0             0      0.199209   2.40708e-15      0.133873        103364        102878        285122   4.41023e-15
    0.0385385       288.371       288.254      0.137963      -4.79806      -19.5749             0      -4.73317      -5.06476             0       25.9652       7.17045             0       66.2744             0             0      0.198907   2.44602e-15      0.135186        103383        102883        284011   4.48157e-15
     0.039039       288.416       288.253      0.142173      -5.60661      -19.4517             0      -5.67456      -5.13503             0       26.0803        6.5664             0       63.3218             0             0      0.198587   2.48576e-15      0.136578        103402        102888        282859   4.55437e-15
    0.0395395       288.452        288.25      0.147259      -6.31883      -19.2371             0       -6.5581      -5.16138             0       27.3062       6.52333             0       60.1045             0             0      0.198052   2.53493e-15      0.138903        103422        102895        281218   4.64446e-15
      0.04004       288.488       288.247      0.152283      -7.01974      -19.0118             0      -7.43256      -5.18337             0        28.618       6.53194             0       56.8739             0             0      0.197501   2.58378e-15        0.1413        103443        102903        279543   4.73396e-15
    0.0405405       288.513       288.243      0.156598      -7.59056      -18.6639             0      -8.20258      -5.15517             0       30.9164        7.1348             0       53.4892             0             0      0.196759   2.62891e-15      0.144526        103460        102911        277485   4.81665e-15
     0.041041       288.536        288.24      0.160679      -8.14436      -18.2999             0      -8.95956      -5.12201             0       33.2656       7.77178             0       50.0948             0             0      0.195994   2.67125e-15      0.147851        103478        102920        275409   4.89422e-15
    0.0415415       288.549       288.239      0.162135      -8.50779       -17.756             0      -9.57035       -5.0334             0       36.1829       8.79068             0       46.5903             0             0      0.194975   2.68233e-15      0.152284        103493        102930        273124   4.91453e-15
     0.042042        288.56       288.238      0.163542      -8.84511      -17.1912             0      -10.1658      -4.93952             0       39.1039       9.81524             0       43.0811             0             0      0.193922   2.68774e-15       0.15686        103509        102940        270838   4.92445e-15
    0.0425425       288.552       288.238       0.16441      -8.89773      -16.3975             0      -10.5932      -4.78828             0        42.067       10.9015             0       39.5215             0             0      0.192514   2.63139e-15      0.162982        103523        102950        268539    4.8212e-15
     0.043043       288.542       288.239      0.165304      -8.91439      -15.5796             0      -11.0049      -4.63132             0       45.0213       11.9665             0       35.9673             0             0      0.191104   2.56917e-15      0.169114        103537        102959        266253   4.70719e-15
    0.0435435       288.508       288.239      0.166469      -8.54903      -14.5044             0      -11.2489      -4.41345             0       47.8827       12.8049             0       32.4717             0             0      0.189673   2.44451e-15      0.175334        103549        102969        264107    4.4788e-15
     0.044044       288.472       288.238      0.167364       -8.1414      -13.4037             0      -11.4773      -4.19036             0       50.7785       13.6135             0       28.9915             0             0      0.188295   2.31647e-15      0.181325        103562        102978        261992   4.24421e-15
    0.0445445       288.419       288.235      0.165472       -7.2958      -12.0388             0      -11.5433      -3.91312             0       54.0321       14.1129             0       25.6708             0             0      0.187465   2.15336e-15      0.184933        103573        102987        260209   3.94536e-15
     0.045045       288.367       288.232      0.163388       -6.4069      -10.6521             0      -11.5943      -3.63165             0       57.4005       14.5787             0       22.3688             0             0      0.186696   1.98995e-15      0.188279        103584        102995        258466   3.64597e-15
    0.0455455       288.313       288.228      0.159375       -5.0803      -9.04524             0      -11.4933      -3.30735             0       61.9298       14.7036             0       19.2564             0             0      0.186537   1.82352e-15      0.188971        103591        103003        257143   3.34102e-15