#           y             T         TMean   TPrime2Mean           U_x           U_y           U_z       UMean_x       UMean_y       UMean_z UPrime2Mea... UPrime2Mea... UPrime2Mea... UPrime2Mea... UPrime2Mea... UPrime2Mea...            O2           H2O          C3H8             p         pMean   pPrime2Mean           CO2
            0       288.342       288.304      0.231242       35.1776             0             0       14.3161             0             0       31.6333             0             0             0             0             0       0.18807   5.38293e-16      0.182298        102670        103158        261683   9.86253e-16
  0.000500501       288.421        288.31      0.232661       34.7384      0.109619             0       14.3254      0.023478             0        31.536      0.143551             0     0.0758769             0             0      0.182561   5.97602e-16      0.206253        102670        103158        261699   1.09492e-15
     0.001001       288.501       288.317      0.234084       34.2982       0.21917             0       14.3346      0.046956             0       31.4386      0.287074             0      0.151951             0             0      0.177048   6.56992e-16      0.230222        102670        103158        261715   1.20373e-15
    0.0015015       288.525       288.329      0.237367       33.3125      0.295122             0       14.3551     0.0704605             0       31.2821        0.4165             0      0.326225             0             0      0.169828   7.56363e-16      0.261616        102670        103158        261718    1.3858e-15
     0.002002       288.549       288.342      0.240664        32.327      0.371105             0       14.3756     0.0939552             0       31.1261      0.545728             0      0.500961             0             0      0.162634   8.55619e-16      0.292897        102670        103158        261722   1.56765e-15
    0.0025025       288.448       288.354       0.24752       31.3803      0.455127             0       14.4045      0.115022             0       31.0697      0.625759             0       0.79074             0             0       0.16183    9.2616e-16      0.296395        102670        103157        261693    1.6969e-15
     0.003003       288.348       288.365      0.254387        30.436      0.539841             0       14.4335      0.136055             0        31.014      0.705175             0        1.0813             0             0      0.161049   9.96641e-16      0.299792        102670        103157        261664   1.82603e-15
    0.0035035       288.249       288.372      0.263104       29.9128      0.739211             0       14.4763      0.151494             0       31.0654      0.682563             0        1.5009             0             0      0.164111   1.05706e-15      0.286477        102670        103156        261559   1.93674e-15
     0.004004       288.149       288.379       0.27175       29.3935      0.940332             0       14.5192      0.166889             0        31.117      0.659034             0       1.92154             0             0      0.167177   1.11734e-15       0.27315        102671        103156        261452   2.04717e-15
    0.0045045       288.078       288.386      0.271643       29.3559       1.35856             0       14.5629       0.17694             0       31.2069      0.521864             0       2.47168             0             0       0.17059   1.15899e-15      0.258307        102672        103155        261261   2.12349e-15
   0.00500501       288.006       288.393      0.271441       29.3205       1.77848             0       14.6063       0.18698             0       31.2951      0.384263             0       3.02274             0             0      0.174005   1.20058e-15      0.243461        102673        103155        261069   2.19968e-15
   0.00550551       287.958       288.403      0.261916       29.4933       2.36549             0       14.6176      0.195979             0       31.2111      0.204085             0       3.66571             0             0      0.177482   1.23482e-15      0.228358        102673        103154        260855   2.26242e-15
   0.00600601       287.909       288.413      0.252387       29.6651       2.95279             0       14.6282      0.205022             0       31.1212     0.0247533             0       4.30894             0             0      0.180956   1.26902e-15      0.213268        102674        103153        260640   2.32508e-15
   0.00650651       287.878       288.423      0.242498       29.7486       3.56433             0       14.5757      0.217653             0       30.5448    -0.0849623             0       4.97427             0             0      0.184181    1.2991e-15      0.199246        102673        103152        260372    2.3802e-15
   0.00700701       287.847       288.433      0.232645       29.8293       4.17478             0       14.5223      0.230361             0       29.9601     -0.192848             0       5.63917             0             0       0.18738   1.32889e-15      0.185338        102672        103152        260104   2.43478e-15
   0.00750751       287.857       288.442      0.225371       29.7149        4.7085             0       14.4003      0.248537             0       28.7831     -0.171872             0        6.2746             0             0      0.188715   1.33773e-15      0.179518        102670        103151        259790   2.45097e-15
   0.00800801       287.866       288.451      0.218121       29.5979        5.2408             0       14.2775      0.266765             0       27.6005     -0.149622             0       6.90962             0             0      0.190037   1.34644e-15      0.173758        102668        103150        259477   2.46694e-15
   0.00850851       287.884       288.461      0.212311       29.3167       5.68498             0       14.1084      0.288219             0       26.0684    -0.0490073             0        7.5199             0             0      0.190503   1.34773e-15      0.171729        102666        103149        259159    2.4693e-15
   0.00900901       287.901        288.47      0.206518       29.0339       6.12828             0       13.9389      0.309665             0        24.536     0.0514637             0        8.1302             0             0      0.190967   1.34899e-15      0.169714        102663        103148        258840    2.4716e-15
   0.00950951       287.914        288.48      0.201684       28.6608       6.52297             0       13.7514      0.330711             0       22.9827      0.144076             0       8.74149             0             0      0.191258   1.34854e-15      0.168449        102659        103147        258524   2.47077e-15
      0.01001       287.927       288.491      0.196881       28.2867       6.91735             0       13.5638      0.351738             0       21.4319      0.236209             0       9.35266             0             0       0.19155   1.34807e-15      0.167178        102655        103146        258207   2.46991e-15
    0.0105105       287.934       288.502      0.193648       27.8611       7.29596             0       13.3722        0.3718             0       20.0044      0.304909             0       9.95862             0             0      0.191909   1.34683e-15      0.165618        102651        103145        257894   2.46764e-15
     0.011011       287.941       288.513      0.190489       27.4346       7.67458             0       13.1806      0.391894             0       18.5787      0.374093             0       10.5637             0             0      0.192267   1.34558e-15      0.164059        102646        103144        257581   2.46535e-15
    0.0115115       287.948       288.523      0.190584       26.9681       8.05343             0       12.9809      0.413408             0       17.2356      0.464838             0       11.1282             0             0      0.192614   1.34398e-15      0.162551        102641        103144        257267   2.46243e-15
     0.012012       287.955       288.533      0.190732       26.5005       8.43228             0       12.7809       0.43496             0        15.894      0.556354             0       11.6913             0             0      0.192961   1.34239e-15      0.161042        102636        103143        256955   2.45951e-15
    0.0125125       287.961       288.542      0.193002        25.991       8.81117             0       12.5688      0.458064             0       14.6145       0.67924             0       12.1977             0             0      0.193303   1.34116e-15      0.159553        102631        103142        256703   2.45726e-15
     0.013013       287.967       288.551       0.19523       25.4802       9.18995             0       12.3566      0.481138             0       13.3399      0.801851             0       12.7029             0             0      0.193645   1.33994e-15      0.158064        102626        103141        256452   2.45503e-15
    0.0135135       287.971       288.559      0.195869        24.922       9.56479             0       12.1436      0.503098             0       12.2547      0.914154             0       13.1633             0             0      0.193983   1.33928e-15      0.156592        102621        103141        256226   2.45382e-15
     0.014014       287.976       288.566      0.196441       24.3623       9.93931             0       11.9308      0.525028             0        11.179       1.02601             0       13.6213             0             0      0.194317   1.33864e-15      0.155135        102616        103140        256001   2.45263e-15
    0.0145145       287.982       288.573      0.194691       23.7518       10.3027             0       11.7239       0.54589             0        10.435       1.12219             0        13.998             0             0      0.194531   1.33844e-15      0.154211        102610        103139        255797   2.45227e-15
     0.015015       287.989        288.58      0.192913       23.1397       10.6655             0       11.5169      0.566856             0       9.70251       1.21883             0       14.3691             0             0      0.194745   1.33825e-15       0.15329        102605        103139        255594   2.45193e-15
    0.0155155       287.996       288.585      0.190219       22.4735        11.008             0        11.303      0.591216             0       9.34064       1.33013             0       14.5611             0             0      0.194929   1.33856e-15       0.15249        102601        103139        255438   2.45248e-15
     0.016016       288.004       288.591      0.187556       21.8056       11.3497             0       11.0887      0.615735             0       8.99187       1.44035             0       14.7461             0             0      0.195113   1.33888e-15      0.151695        102596        103138        255284   2.45308e-15
    0.0165165        288.01       288.595      0.185827       21.0837        11.665             0       10.8586      0.645065             0       9.03896       1.51754             0       14.7177             0             0      0.195262   1.33988e-15      0.151041        102592        103138        255168   2.45491e-15
     0.017017       288.016       288.599      0.184164       20.3598       11.9795             0       10.6284      0.674399             0       9.10126       1.58943             0       14.6845             0             0      0.195409    1.3409e-15        0.1504        102588        103138        255052   2.45678e-15
    0.0175175       288.023       288.601       0.18438       19.5838       12.2707             0       10.3928      0.703846             0       9.59586       1.51061             0       14.5147             0             0      0.195471   1.34259e-15       0.15013        102585        103138        254940   2.45987e-15
     0.018018       288.029       288.603      0.184672       18.8058       12.5612             0       10.1573      0.733155             0       10.1047       1.42464             0       14.3425             0             0      0.195534   1.34428e-15      0.149854        102582        103138        254828   2.46296e-15
    0.0185185       288.035       288.603      0.187005       17.9765       12.8344             0       9.92628      0.758791             0       10.9964       1.14714             0       14.1076             0             0       0.19564   1.34597e-15       0.14939        102581        103138        254724   2.46606e-15
     0.019019       288.041       288.603      0.189402        17.145       13.1072             0       9.69556      0.784316             0       11.8973      0.865185             0       13.8709             0             0      0.195752   1.34766e-15      0.148906        102579        103138        254621   2.46916e-15
    0.0195195        288.05       288.602      0.193447       16.2604       13.3699             0       9.47169       0.80703             0       13.0343      0.470451             0       13.5877             0             0      0.195982   1.34932e-15      0.147905        102578        103139        254532   2.47221e-15
      0.02002       288.059       288.601      0.197551       15.3735       13.6325             0       9.24806      0.829764             0       14.1745     0.0771346             0       13.3027             0             0      0.196211   1.35101e-15      0.146908        102578        103139        254442    2.4753e-15
    0.0205205       288.078         288.6       0.20308       14.4328       13.8903             0       9.03053      0.852978             0       15.3904     -0.282173             0       12.9726             0             0      0.196414    1.3533e-15      0.146027        102578        103139        254303    2.4795e-15
     0.021021       288.098         288.6      0.208712        13.491       14.1464             0       8.81357      0.876432             0        16.599     -0.635631             0       12.6401             0             0      0.196606   1.35562e-15       0.14519        102578        103139        254163   2.48375e-15
    0.0215215       288.136         288.6      0.216694       12.5268       14.3631             0       8.60967      0.905403             0       17.6406     -0.855681             0       12.2514             0             0      0.196564   1.35863e-15      0.145377        102580        103139        254010   2.48926e-15
     0.022022       288.175       288.601      0.224827       11.5651        14.575             0       8.40703       0.93439             0       18.6617      -1.06599             0       11.8619             0             0      0.196511   1.36162e-15      0.145605        102582        103140        253859   2.49475e-15
    0.0225225       288.225       288.604      0.236243       10.6562        14.679             0       8.23167       0.96371             0       19.2392      -1.06454             0       11.4559             0             0      0.196248   1.36447e-15      0.146749        102585        103140        253731   2.49997e-15
     0.023023       288.274       288.607      0.247666       9.75374       14.7746             0       8.05739      0.993238             0       19.8011      -1.05708             0       11.0515             0             0      0.195982   1.36725e-15      0.147904        102588        103140        253605   2.50505e-15
    0.0235235       288.317       288.608      0.259233       8.98492       14.6958             0       7.90521       1.02709             0       20.0422     -0.924925             0        10.683             0             0      0.195661    1.3685e-15      0.149307        102591        103140        253515   2.50734e-15
     0.024024        288.36        288.61      0.270675       8.22339       14.6091             0       7.75378        1.0612             0       20.2773     -0.788892             0       10.3169             0             0      0.195338   1.36944e-15      0.150715        102594        103140        253427   2.50907e-15
    0.0245245       288.389       288.612      0.279663       7.60638       14.3632             0       7.61729       1.10045             0       20.3952     -0.575947             0            10             0             0      0.194991   1.36427e-15      0.152224        102597        103140        253371    2.4996e-15
     0.025025       288.417       288.613      0.288585       6.99092       14.1173             0       7.48138       1.13979             0       20.5158     -0.358847             0       9.68587             0             0      0.194633   1.35839e-15      0.153781        102600        103140        253319   2.48883e-15
    0.0255255       288.442       288.618       0.29624       6.40517       13.8733             0       7.35641        1.1808             0       20.6885    -0.0627884             0       9.42428             0             0      0.194065   1.33894e-15      0.156245        102603        103140        253333    2.4532e-15
     0.026026       288.466       288.624      0.303756       5.81522       13.6357             0       7.23155       1.22226             0       20.8806      0.227595             0         9.167             0             0      0.193482   1.31868e-15      0.158771        102607        103140        253352   2.41606e-15
    0.0265265        288.49       288.629      0.308724       5.14868       13.5158             0       7.10885       1.27196             0       21.4251      0.414525             0       8.98841             0             0      0.192644   1.28348e-15      0.162414        102610        103140        253471   2.35158e-15
     0.027027       288.513       288.634      0.313387       4.48143        13.399             0       6.98691       1.32178             0       21.9827      0.592359             0       8.81642             0             0       0.19181   1.24775e-15      0.166039        102613        103139        253595   2.28611e-15
    0.0275275        288.52       288.636      0.312713       3.80164        13.339             0       6.87842       1.37356             0       22.7714      0.610834             0       8.76021             0             0      0.191049   1.20257e-15      0.169348        102616        103139        253795   2.20333e-15
     0.028028       288.526       288.637      0.311672       3.12753       13.2776             0       6.77227       1.42488             0       23.5423      0.625926             0       8.71021             0             0      0.190301   1.15697e-15        0.1726        102619        103139        254000   2.11978e-15
    0.0285285       288.507       288.633      0.304441       2.54908       13.1939             0       6.70568       1.46832             0        24.013      0.583995             0        8.7649             0             0      0.189776   1.10442e-15      0.174886        102622        103138        254260    2.0235e-15
     0.029029       288.488       288.629      0.297029       1.97925       13.1065             0       6.64247       1.51089             0       24.4385      0.545685             0        8.8244             0             0       0.18926   1.05179e-15      0.177129        102625        103137        254525   1.92708e-15
    0.0295295       288.452       288.623      0.286675        1.5495       12.9614             0       6.63387       1.53938             0         24.13      0.566187             0       8.96206             0             0      0.188901   9.98003e-16      0.178691        102629        103137        254877   1.82853e-15
      0.03003       288.416       288.616      0.276312       1.13078       12.8098             0       6.62824       1.56692             0       23.7721      0.591594             0       9.10276             0             0      0.188558   9.44764e-16      0.180185        102633        103136        255234   1.73098e-15
    0.0305305       288.372        288.61      0.265794       0.88479       12.5572             0       6.66891       1.57949             0       22.6412      0.693847             0        9.2913             0             0      0.188455   9.00174e-16      0.180633        102637        103135        255661   1.64929e-15
     0.031031       288.329       288.605      0.255191      0.649636       12.2971             0       6.71119       1.59123             0       21.4795      0.796174             0       9.48146             0             0      0.188371   8.56183e-16         0.181        102641        103134        256094   1.56869e-15
    0.0315315        288.29       288.604      0.243288      0.578375       11.9253             0       6.77792       1.59044             0       19.8525      0.899609             0       9.69617             0             0       0.18857   8.21245e-16      0.180132        102647        103134        256619   1.50467e-15
     0.032032       288.252       288.602      0.231306      0.512014       11.5494             0       6.84505       1.58908             0        18.221      0.997094             0       9.91128             0             0      0.188778   7.86809e-16      0.179231        102652        103133        257149   1.44158e-15
    0.0325325       288.225       288.603      0.218185      0.517303       11.1133             0       6.91799       1.57937             0       16.5235       1.00755             0       10.1323             0             0      0.189101   7.59726e-16      0.177824        102658        103132        257755   1.39196e-15
     0.033033       288.199       288.605      0.205164      0.518371        10.679             0       6.99082        1.5694             0       14.8411       1.00991             0       10.3529             0             0      0.189416   7.33616e-16      0.176454        102663        103132        258359   1.34412e-15
    0.0335335        288.19       288.607      0.193568      0.459702       10.2691             0       7.06214       1.55568             0       13.3727      0.897619             0       10.5675             0             0      0.189614   7.21276e-16      0.175592        102670        103131        258943   1.32151e-15
     0.034034       288.182       288.609       0.18216       0.39701       9.86212             0       7.13339       1.54183             0       11.9264      0.778386             0       10.7812             0             0      0.189798   7.11047e-16      0.174795        102677        103131        259528   1.30277e-15
    0.0345345       288.192       288.611      0.173327       0.27919       9.49574             0       7.20374       1.52604             0       10.7839      0.564073             0       10.9811             0             0      0.189773    7.2973e-16      0.174901        102684        103130        260131     1.337e-15
     0.035035       288.202       288.613      0.164655      0.171093       9.12565             0        7.2744       1.51021             0       9.65874      0.342127             0       11.1786             0             0      0.189744   7.50977e-16      0.175029        102691        103130        260735   1.37593e-15
    0.0355355       288.218       288.615      0.158105      0.192166       8.70631             0       7.34919       1.49365             0       8.76356     0.0187807             0       11.3435             0             0      0.189644   8.06279e-16      0.175461        102699        103130        261344   1.47725e-15
     0.036036       288.233       288.616       0.15166      0.225559       8.28236             0       7.42413       1.47702             0       7.88682     -0.313686             0       11.5017             0             0      0.189558   8.61855e-16      0.175837        102706        103130        261947   1.57908e-15
    0.0365365       288.239       288.616      0.146568      0.417743       7.79887             0       7.50086       1.45954             0       7.24767     -0.763704             0       11.5734             0             0      0.189634    9.2095e-16      0.175505        102713        103130        262468   1.68735e-15
     0.037037       288.242       288.617      0.141543      0.604993       7.32063             0       7.57663       1.44171             0       6.64092       -1.2205             0        11.634             0             0      0.189745   9.79648e-16      0.175023        102721        103130        262988    1.7949e-15
    0.0375375       288.223       288.618      0.137352      0.730509       6.90807             0       7.64025       1.41955             0       6.43967      -1.76207             0       11.5551             0             0      0.190285   1.03338e-15      0.172677        102727        103130        263480   1.89335e-15
     0.038038       288.201        288.62      0.133194      0.838976        6.5057             0       7.70222       1.39697             0       6.28165      -2.30518             0       11.4631             0             0      0.190852   1.08786e-15      0.170211        102734        103130        263969   1.99316e-15
    0.0385385       288.159       288.622      0.129435       0.74016       6.22714             0       7.74417       1.36946             0       6.64931      -2.86697             0       11.2128             0             0      0.191752   1.15136e-15      0.166297        102740        103131        264410    2.1095e-15
     0.039039       288.117       288.623      0.125676      0.635041       5.95308             0       7.78428       1.34152             0       7.06619      -3.42435             0       10.9487             0             0       0.19262   1.21324e-15      0.162522        102747        103132        264843   2.22289e-15
    0.0395395       288.085       288.625      0.121911      0.455435       5.73218             0       7.80271       1.30851             0       8.06482      -3.92956             0       10.5211             0             0      0.193106   1.25602e-15      0.160407        102752        103132        265164   2.30127e-15
      0.04004       288.055       288.627      0.118149      0.289429       5.50923             0       7.81897       1.27502             0       9.11754      -4.42455             0       10.0815             0             0      0.193531    1.2973e-15      0.158561        102758        103133        265481   2.37689e-15
    0.0405405       288.051       288.628      0.114442      0.279813       5.26272             0       7.81029       1.23599             0       10.7922      -4.80189             0       9.50192             0             0      0.193244   1.32122e-15      0.159806        102763        103134        265749   2.42072e-15
     0.041041       288.049       288.628      0.110743      0.284592        5.0144             0       7.79875       1.19644             0       12.5158      -5.16483             0       8.91354             0             0       0.19288   1.34899e-15      0.161392        102768        103136        266012    2.4716e-15
    0.0415415       288.071       288.626      0.107146      0.450527       4.74579             0       7.75512       1.15109             0       14.7873      -5.36657             0       8.22652             0             0       0.19164   1.41983e-15      0.166782        102772        103137        266215    2.6014e-15
     0.042042       288.095       288.624      0.103615      0.602621       4.47816             0        7.7079       1.10505             0       17.0869      -5.55279             0        7.5358             0             0      0.190378   1.49264e-15      0.172271        102776        103139        266406   2.73479e-15
    0.0425425       288.132        288.62      0.100804      0.603782       4.22115             0       7.62145       1.05162             0       19.6936       -5.5696             0       6.80478             0             0      0.188868   1.58682e-15      0.178836        102779        103140        266457   2.90734e-15
     0.043043        288.17       288.616     0.0981354      0.558281       3.96558             0       7.53212       0.99753             0       22.3035      -5.57258             0       6.07608             0             0      0.187362   1.68154e-15      0.185381        102782        103141        266505   3.08089e-15
    0.0435435       288.219        288.61     0.0969731     0.0168494        3.7252             0       7.41214      0.936362             0       24.9469       -5.4285             0       5.37206             0             0      0.185908   1.78204e-15      0.191703        102784        103143        266518   3.26502e-15
     0.044044       288.269       288.605     0.0959702     -0.576735       3.48469             0       7.29105      0.874513             0        27.574      -5.27536             0       4.67351             0             0      0.184451   1.88333e-15      0.198041        102786        103144        266531   3.45061e-15
    0.0445445       288.323       288.598     0.0966189      -1.71081       3.24295             0       7.15848      0.805591             0       30.0326      -5.02832             0       4.03167             0             0      0.182952   1.99288e-15      0.204559        102787        103145        266547   3.65132e-15
     0.045045       288.373       288.592     0.0974016      -2.86992       2.99888             0       7.02551      0.735956             0       32.4583      -4.77557             0       3.39614             0             0      0.181527   2.09757e-15      0.210753        102789        103147        266554   3.84314e-15
    0.0455455       288.393       288.586     0.0995395      -4.28212       2.73141             0       6.88847      0.659108             0       34.5507      -4.46505             0       2.82448             0             0      0.180854   2.15319e-15      0.213678        102790        103147        266471   3.94504e-15