#           y             T         TMean   TPrime2Mean           U_x           U_y           U_z       UMean_x       UMean_y       UMean_z UPrime2Mea... UPrime2Mea... UPrime2Mea... UPrime2Mea... UPrime2Mea... UPrime2Mea...            O2           H2O          C3H8             p         pMean   pPrime2Mean           CO2
  1.11022e-19       288.374        288.09      0.114648       26.2704   1.66535e-16             0       20.0002  -2.25307e-16             0       22.0877   -1.3384e-16             0   4.43265e-16             0             0        0.2297   1.02261e-08     0.0013024        103582        103127        240798   1.87361e-08
  0.000500501         288.4       288.096      0.117288        26.274      0.173749             0       20.0024     0.0574095             0       22.1334    -0.0453251             0     0.0530959             0             0      0.229389   2.72205e-08    0.00265437        103581        103127        240749    4.9873e-08
     0.001001       288.426       288.102      0.120059       26.2776       0.34745             0       20.0047      0.114819             0       22.1793    -0.0906382             0       0.10635             0             0      0.229075   4.44751e-08    0.00401972        103581        103127        240699   8.14866e-08
    0.0015015       288.712       288.134      0.187756       26.2895      0.497459             0       20.0115      0.172191             0       22.3085     -0.130026             0      0.238536             0             0      0.227224   1.91568e-07     0.0120621        103580        103127        240514   3.50989e-07
     0.002002       289.004       288.167      0.258207       26.3013      0.647319             0       20.0183      0.229563             0       22.4385     -0.169412             0      0.371143             0             0      0.225363   3.40407e-07     0.0201505        103579        103126        240329   6.23688e-07
    0.0025025       290.615       288.273       1.01465       26.2753      0.760049             0       20.0324      0.287052             0       22.7517     -0.208338             0      0.608623             0             0      0.220858   9.23687e-07     0.0397227        103580        103126        240039   1.69237e-06
     0.003003       292.244        288.38        1.7892       26.2497      0.872355             0       20.0465      0.344544             0       23.0661     -0.247165             0      0.846832             0             0      0.216348   1.51132e-06     0.0593157        103581        103126        239749   2.76902e-06
    0.0035035       296.721       288.606       5.56395       26.2722      0.914679             0       20.0797       0.40248             0        23.586     -0.269574             0       1.20593             0             0      0.211041   2.82011e-06      0.082369        103586        103125        239451   5.16697e-06
     0.004004       301.232       288.833       9.39044       26.2972      0.955344             0       20.1129      0.460439             0       24.1052      -0.29167             0       1.56609             0             0      0.205757   4.13268e-06      0.105323        103592        103125        239153   7.57184e-06
    0.0045045       310.011       289.167       19.6319       26.6319      0.790211             0       20.1408      0.521254             0       24.5479     -0.274937             0       2.05709             0             0      0.203294   5.91395e-06      0.116009        103597        103124        238815   1.08355e-05
   0.00500501       318.817       289.502       29.9426        26.972      0.625712             0       20.1681      0.582106             0       24.9862     -0.257097             0       2.54913             0             0      0.200858   7.69328e-06      0.126579        103602        103124        238475   1.40955e-05
   0.00550551       330.258       289.858       47.0949       27.8533      0.523943             0       20.1415      0.646539             0       24.9774      -0.12958             0       3.14404             0             0      0.201068   9.28047e-06       0.12565        103615        103123        238113   1.70036e-05
   0.00600601       341.686       290.214       64.3021       28.7371      0.426602             0       20.1135      0.711065             0       24.9623   0.000379331             0        3.7392             0             0      0.201277   1.08682e-05      0.124728        103628        103122        237751   1.99126e-05
   0.00650651       351.938       290.509       86.0268       29.8226      0.693775             0       19.9738      0.783202             0        24.426      0.331449             0         4.354             0             0      0.201364   1.25012e-05      0.124337        103643        103121        237465   2.29045e-05
   0.00700701       362.121       290.803       107.692       30.8999      0.962958             0        19.832      0.855427             0       23.8866      0.666303             0       4.96831             0             0      0.201429   1.41499e-05      0.124044        103658        103121        237179   2.59252e-05
   0.00750751       367.417       290.971       125.166       31.3928       1.37371             0       19.5422      0.933808             0       23.1326       1.26774             0       5.54816             0             0      0.199916   1.69043e-05      0.130591        103658        103120        236828   3.09718e-05
   0.00800801       372.635       291.138       142.471       31.8672       1.78668             0       19.2503       1.01211             0       22.3798       1.87024             0       6.12773             0             0       0.19838   1.96772e-05      0.137237        103659        103119        236476   3.60524e-05
   0.00850851       373.083       291.172       149.362        31.201       2.33634             0       18.8276       1.08568             0       21.7067        2.5381             0       6.69003             0             0       0.19544    2.3592e-05      0.149977        103659        103119        235980   4.32249e-05
   0.00900901       373.516       291.205       156.174       30.5252       2.88604             0       18.4035       1.15875             0       21.0402       3.19859             0       7.25418             0             0      0.192502   2.75083e-05       0.16271        103659        103118        235485   5.04004e-05
   0.00950951       373.077       291.175       158.655       29.3254       3.43826             0       17.9035       1.20481             0       20.7406       3.45713             0       7.91965             0             0      0.189655   3.15132e-05      0.175049        103661        103117        234982   5.77381e-05
      0.01001       372.651       291.144       161.117       28.1306       3.98635             0       17.4037       1.25034             0       20.4632       3.70627             0       8.58903             0             0      0.186842   3.54743e-05      0.187243        103663        103116        234479   6.49956e-05
    0.0105105       372.797       291.079       162.611       27.1805       4.33208             0       16.9163       1.26952             0       21.2789       3.49516             0        9.4502             0             0      0.185665   3.72922e-05      0.192348        103664        103115        233960   6.83263e-05
     0.011011       372.984       291.015       164.072       26.2289       4.67461             0       16.4294       1.28846             0       22.1317       3.28091             0       10.3134             0             0      0.184533   3.90155e-05      0.197253        103665        103114        233444   7.14836e-05
    0.0115115       374.937       290.922       164.062       25.2083       4.87508             0       15.9683       1.29707             0       24.6291       2.92704             0       11.2685             0             0      0.185448   3.65321e-05      0.193312        103666        103113        233064   6.69336e-05
     0.012012       376.994        290.83       164.005       24.1861       5.07311             0        15.507       1.30566             0       27.1573       2.57288             0       12.2239             0             0      0.186379   3.39852e-05      0.189304        103668        103111        232693   6.22672e-05
    0.0125125       383.303       290.724       162.049       23.0954       5.17241             0         15.04       1.31336             0       30.9395       2.20685             0       13.1934             0             0      0.187939   2.88554e-05       0.18258        103671        103110        232631   5.28685e-05
     0.013013       389.637       290.619       160.018       22.0182       5.26774             0       14.5746       1.32053             0       34.7244       1.83507             0       14.1675             0             0      0.189468   2.37608e-05      0.175987        103673        103108        232577   4.35341e-05
    0.0135135       396.932       290.524       155.148        21.448       5.21456             0       14.1687       1.30805             0         38.61       1.24822             0       15.3113             0             0      0.189858   1.99827e-05      0.174332        103675        103107        232806    3.6612e-05
     0.014014       404.113        290.43       150.161       20.8885       5.15413             0       13.7654       1.29499             0        42.472      0.654962             0       16.4625             0             0      0.190188    1.6263e-05      0.172933        103676        103105        233041   2.97968e-05
    0.0145145       407.332       290.337       141.126       20.6991       4.84167             0       13.4544       1.26209             0       45.5122     -0.160945             0       17.8728             0             0      0.188465    1.4569e-05      0.180436        103675        103103        233470   2.66932e-05
     0.015015       410.405       290.244       131.985       20.4987       4.53277             0       13.1445       1.22926             0       48.5221     -0.975087             0       19.2849             0             0      0.186712    1.2896e-05       0.18807        103673        103101        233906    2.3628e-05
    0.0155155       408.759       290.117       119.416       19.9417       4.33901             0       12.8708       1.19907             0        50.551      -1.73214             0       20.7544             0             0      0.183989   1.19005e-05      0.199912        103670        103098        234582    2.1804e-05
     0.016016       407.029       289.991       106.869       19.3712       4.15967             0       12.5977       1.16951             0       52.5515      -2.48264             0       22.2223             0             0      0.181288   1.09062e-05      0.211654        103666        103096        235267   1.99822e-05
    0.0165165       402.728       289.845       94.9681       18.3911       4.41667             0       12.3419       1.15906             0       53.6915      -3.03485             0       23.6425             0             0      0.179277   9.94603e-06      0.220411        103661        103094        236201    1.8223e-05
     0.017017       398.468       289.699       83.1305        17.417       4.67941             0       12.0867       1.14936             0       54.8068      -3.58323             0       25.0626             0             0      0.177289   8.98025e-06      0.229066        103656        103092        237140   1.64535e-05
    0.0175175       395.364       289.562       73.1059       16.6112       5.10517             0       11.8503       1.16078             0       55.2231      -4.02319             0       26.4812             0             0      0.175972   7.85434e-06      0.234808        103650        103091        238232   1.43906e-05
     0.018018       392.291       289.425       63.1294       15.8219       5.52904             0       11.6139       1.17304             0       55.6107      -4.46245             0       27.9015             0             0      0.174661   6.73589e-06       0.24052        103645        103089        239326   1.23414e-05
    0.0185185       390.008       289.307       54.4383       15.4763       5.90197             0       11.3763         1.208             0       55.2338      -4.88298             0       29.3646             0             0      0.173531   5.81729e-06      0.245447        103640        103087        240512   1.06584e-05
     0.019019       387.676        289.19       45.8091       15.1375       6.27606             0        11.138       1.24384             0       54.8202      -5.30121             0        30.828             0             0      0.172412   4.91121e-06       0.25032        103636        103085        241696   8.99826e-06
    0.0195195       384.077        289.09       38.7438       14.9722       6.67925             0        10.882       1.30194             0       53.4792       -5.6615             0       32.2963             0             0      0.171608   4.32192e-06      0.253821        103634        103084        242842   7.91857e-06
      0.02002       380.398        288.99       31.7452       14.8005       7.09155             0       10.6256       1.36112             0       52.1096       -6.0161             0       33.7622             0             0      0.170831   3.73989e-06      0.257205        103633        103082        243985   6.85217e-06
    0.0205205       374.813       288.913       26.3457       14.4751       7.72239             0       10.3596       1.44602             0       50.0534      -6.23404             0       35.1724             0             0      0.170705   3.33194e-06      0.257755        103632        103080        245051   6.10474e-06
     0.021021        369.17       288.838       21.0135       14.1386       8.36513             0       10.0943       1.53208             0       47.9938       -6.4425             0       36.5798             0             0      0.170606   2.92579e-06      0.258192        103631        103079        246111   5.36059e-06
    0.0215215       362.221       288.788       17.2174        13.549       9.27916             0       9.84562       1.64434             0       45.8534      -6.43473             0       37.9253             0             0      0.171104   2.56053e-06      0.256031        103632        103078        247036   4.69136e-06
     0.022022        355.27       288.739       13.4828       12.9529       10.1983             0       9.59887       1.75777             0       43.7236      -6.41646             0       39.2682             0             0       0.17162   2.19723e-06      0.253789        103634        103076        247954   4.02574e-06
    0.0225225       348.302       288.706       11.0833       12.2143       11.2275             0       9.39364        1.8965             0       41.8231       -6.1698             0       40.5532             0             0      0.172542   1.87665e-06      0.249787        103634        103076        248717   3.43837e-06
     0.023023        341.39       288.674       8.73419       11.4782       12.2529             0        9.1906       2.03621             0       39.9249      -5.91343             0       41.8373             0             0      0.173455   1.55927e-06      0.245821        103635        103075        249472   2.85688e-06
    0.0235235       335.645       288.652       7.42823       10.7944       13.1973             0       9.03273       2.19613             0       38.0773       -5.4558             0       43.1027             0             0      0.174197   1.30837e-06        0.2426        103642        103074        250048   2.39718e-06
     0.024024       330.007       288.631       6.15856       10.1269       14.1285             0       8.87633       2.35705             0       36.2245      -4.98559             0       44.3679             0             0        0.1749   1.06166e-06      0.239547        103649        103073        250616   1.94516e-06
    0.0245245       326.496       288.619       5.60863       9.78104       14.7987             0       8.74914       2.53772             0       34.2684      -4.26588             0       45.6296             0             0      0.174835   8.97985e-07      0.239833        103662        103073        251012   1.64528e-06
     0.025025        323.08       288.607       5.07721       9.45885       15.4521             0       8.62282       2.71948             0       32.3175      -3.52874             0       46.8917             0             0      0.174746   7.37293e-07      0.240226        103675        103072        251393   1.35086e-06
    0.0255255       321.486         288.6       4.89763       9.58591        15.784             0       8.51309       2.92207             0       30.4651      -2.46037             0       48.1612             0             0      0.174192   6.33289e-07      0.242635        103686        103072        251500    1.1603e-06
     0.026026       319.923       288.593        4.7222       9.72946          16.1             0       8.40413       3.12575             0       28.6417      -1.37224             0       49.4333             0             0      0.173634   5.30786e-07      0.245064        103698        103072        251590   9.72498e-07
    0.0265265       318.922       288.586       4.62251       10.1735       16.1241             0       8.30944       3.34923             0       27.3469     0.0760839             0       50.7525             0             0      0.172992   4.55635e-07      0.247854        103710        103072        251355   8.34809e-07
     0.027027       317.915       288.579        4.5244        10.621        16.136             0       8.21496       3.57351             0       26.0988       1.54354             0       52.0735             0             0      0.172308     3.817e-07       0.25083        103722        103071        251103   6.99345e-07
    0.0275275       316.818       288.571       4.45394       11.1283       15.9316             0        8.1244       3.81178             0       25.6695       3.34619             0       53.4265             0             0      0.170875   3.29039e-07      0.257059        103728        103072        250554   6.02862e-07
     0.028028       315.733       288.562        4.3866       11.6293       15.7232             0       8.03319       4.05043             0        25.286       5.16162             0       54.7728             0             0      0.169348   2.77146e-07        0.2637        103733        103072        249987   5.07783e-07
    0.0285285       314.857       288.552       4.37185       12.0241       15.4465             0       7.93111       4.29532             0       25.6727       7.19248             0       56.0053             0             0      0.166223   2.38176e-07       0.27729        103729        103073        249098   4.36384e-07
     0.029029       314.018       288.543       4.35436        12.409       15.1719             0       7.82802       4.54027             0       26.0924       9.22382             0       57.2217             0             0      0.163115   2.00148e-07      0.290808        103724        103073        248199   3.66708e-07
    0.0295295       313.779       288.531       4.29248       12.6357       14.9316             0       7.70838       4.78601             0       27.0468       11.2629             0       58.1783             0             0      0.160276   1.77402e-07      0.303151        103710        103074        247149   3.25034e-07
      0.03003       313.568       288.519       4.22095       12.8601       14.6952             0       7.58806       5.03167             0       28.0224       13.2901             0       59.1174             0             0      0.157532   1.55864e-07      0.315081        103695        103075        246093   2.85572e-07
    0.0305305       313.786       288.502        3.9984       13.0477       14.5182             0       7.45705       5.27624             0       29.3292       15.1318             0       59.7803             0             0      0.156279    1.5324e-07      0.320528        103671        103076        244940   2.80765e-07
     0.031031       313.994       288.486       3.76749       13.2509       14.3426             0       7.32574       5.52053             0       30.6515        16.954             0       60.4295             0             0      0.155081   1.50953e-07      0.325736        103647        103077        243789   2.76575e-07
    0.0315315       314.032       288.466       3.41008       13.6889        14.187             0       7.18992       5.76074             0       32.2074       18.4793             0       60.8697             0             0      0.154718   1.53764e-07      0.327313        103619        103078        242650   2.81724e-07
     0.032032       314.038       288.445       3.04979        14.156       14.0296             0       7.05376       6.00021             0       33.7766        19.981             0       61.2988             0             0      0.154443   1.56713e-07      0.328505        103592        103079        241522   2.87127e-07
    0.0325325       313.561       288.423       2.64755       15.0499       13.8466             0       6.91272       6.22895             0       35.5399       21.1379             0       61.5656             0             0      0.155465   1.61682e-07      0.324059        103568        103081        240556   2.96232e-07
     0.033033       313.039       288.401        2.2487       15.9637        13.662             0       6.77102       6.45622             0       37.3102        22.267             0       61.8191             0             0      0.156632    1.6677e-07      0.318981        103544        103082        239601   3.05553e-07
    0.0335335       311.871       288.379       1.89799       17.1586       13.4555             0       6.61994       6.66263             0       39.1807       23.0023             0       61.8826             0             0      0.159853   1.73521e-07      0.304973        103530        103084        238806   3.17922e-07
     0.034034       310.669       288.357       1.55245       18.3426       13.2519             0       6.46774       6.86668             0        41.047       23.7038             0       61.9257             0             0      0.163105   1.79907e-07      0.290828        103516        103086        238025   3.29624e-07
    0.0345345       308.996       288.337       1.27789       19.3767       13.0864             0        6.3002       7.03831             0       42.8561       23.9402             0       61.6875             0             0      0.166791     1.813e-07      0.274797        103517        103088        237442   3.32176e-07
     0.035035       307.266       288.317       1.00789       20.3702       12.9253             0        6.1309       7.20658             0        44.652       24.1378             0       61.4212             0             0      0.170526   1.81774e-07      0.258552        103519        103090        236876   3.33044e-07
    0.0355355       304.775         288.3      0.798428       20.8243       12.8229             0       5.93818       7.33038             0       46.2718       23.8209             0       60.7803             0             0      0.174916   1.70037e-07      0.239463        103535        103093        236540    3.1154e-07
     0.036036       302.242       288.283      0.596053       21.2272       12.7251             0       5.74293       7.44999             0        47.877       23.4642             0       60.1055             0             0      0.179445   1.57456e-07      0.219768        103551        103095        236217   2.88488e-07
    0.0365365        299.17       288.272      0.485033        20.969        12.687             0       5.51516       7.51553             0       49.2929       22.5958             0       58.9924             0             0       0.18577   1.33986e-07      0.192267        103576        103098        236067   2.45488e-07
     0.037037       296.166       288.261      0.379785       20.6686       12.6549             0       5.28428       7.57635             0       50.6974       21.6908             0       57.8417             0             0      0.192031   1.10518e-07      0.165045        103600        103101        235925   2.02489e-07
    0.0375375        294.02       288.256      0.346771       19.8402       12.6979             0        5.0147         7.578             0       51.9576       20.3273             0       56.2208             0             0      0.197491   8.70597e-08      0.141311        103628        103105        235901    1.5951e-07
     0.038038       291.961       288.251      0.315582       18.9828       12.7455             0       4.74158        7.5748             0       53.2136       18.9367             0       54.5622             0             0      0.202801   6.42055e-08      0.118231        103655        103108        235888   1.17636e-07
    0.0385385       290.963       288.249      0.306575       17.7744       12.8474             0       4.42546       7.51266             0       54.4187       17.2168             0        52.445             0             0      0.206285   4.86903e-08       0.10309        103682        103112        236010   8.92097e-08
     0.039039       290.009       288.247      0.297818       16.5494       12.9491             0       4.10574        7.4457             0       55.6258       15.4831             0       50.2954             0             0      0.209659    3.3685e-08     0.0884253        103707        103116        236143   6.17172e-08
    0.0395395       289.568       288.246      0.292002       15.1283        13.048             0       3.74354        7.3218             0       56.8565       13.5851             0       47.7624             0             0      0.211737   2.47067e-08     0.0793939        103727        103120        236406   4.52672e-08
      0.04004       289.145       288.246      0.285992       13.7001       13.1383             0       3.37894       7.19294             0       58.0752       11.6802             0       45.2081             0             0      0.213732   1.60714e-08     0.0707255        103747        103125        236679   2.94458e-08
    0.0405405       288.936       288.247      0.277739         12.19       13.1293             0       2.98664       7.00709             0       59.1557       9.69491             0        42.409             0             0      0.214766   1.13819e-08     0.0662321        103758        103129        237057   2.08538e-08
     0.041041       288.736       288.249       0.26935       10.6784        13.106             0       2.59423       6.81624             0       60.1894       7.70485             0       39.5963             0             0      0.215742   6.90782e-09     0.0619897        103768        103134        237436   1.26564e-08
    0.0415415       288.633       288.253      0.259429        9.1501       12.9241             0       2.20049        6.5696             0       60.6991       5.66194             0       36.6317             0             0      0.216072   4.84501e-09     0.0605565        103771        103139        237830   8.87696e-09
     0.042042       288.535       288.257      0.249502       7.63072       12.7208             0        1.8083       6.31836             0       61.1493       3.62364             0       33.6586             0             0      0.216369   2.89616e-09     0.0592652        103773        103144        238222   5.30631e-09
    0.0425425       288.487       288.263      0.239513       6.20821       12.2844             0       1.43289       6.01695             0       60.9517       1.63569             0       30.5936             0             0       0.21631   2.19003e-09     0.0595219        103770        103149        238605   4.01254e-09
     0.043043       288.441       288.269      0.229484       4.79309       11.8277             0       1.05883       5.71204             0       60.7314     -0.333254             0       27.5305             0             0        0.2162    1.5154e-09     0.0600012        103767        103153        238992    2.7765e-09
    0.0435435       288.418        288.28       0.21904       3.45644       11.1568             0      0.699108       5.36983             0       60.2713      -2.10009             0       24.4886             0             0      0.215546   1.17565e-09     0.0628457        103763        103158        239441   2.15401e-09
     0.044044       288.393       288.291      0.208612       2.12965       10.4743             0      0.341959       5.02456             0       59.7895      -3.82378             0       21.4617             0             0      0.214845   8.43232e-10     0.0658926        103759        103163        239896   1.54496e-09
    0.0445445       288.342       288.305      0.198361      0.905152       9.67194             0     0.0114924       4.64757             0       59.0838      -5.10042             0       18.5901             0             0      0.213662   5.86874e-10     0.0710376        103759        103168        240407   1.07526e-09
     0.045045       288.288        288.32      0.188459     -0.308826       8.85955             0     -0.313611       4.26704             0       58.3127       -6.3078             0       15.7427             0             0      0.212365   3.42624e-10     0.0766783        103759        103172        240925   6.27751e-10
    0.0455455       288.208       288.332      0.182081      -1.41638        7.9452             0     -0.584481       3.85072             0       56.8795      -6.81495             0       13.1398             0             0      0.209915   2.20803e-10     0.0873306        103762        103176        241513   4.04553e-10