#           y             T         TMean   TPrime2Mean           U_x           U_y           U_z       UMean_x       UMean_y       UMean_z UPrime2Mea... UPrime2Mea... UPrime2Mea... UPrime2Mea... UPrime2Mea... UPrime2Mea...            O2           H2O          C3H8             p         pMean   pPrime2Mean           CO2
  1.11022e-19       288.097       288.158      0.191105       18.1051  -9.15291e-18             0       16.8947   5.49787e-18             0       40.5336  -2.73657e-17             0   2.53085e-17             0             0      0.229237   8.74341e-14    0.00331685        103244        103155        270988   1.60196e-13
  0.000500501       288.063       288.159      0.196668       18.1037    -0.0412623             0       16.8998      0.024785             0       40.4633     -0.123367             0      0.114094             0             0       0.22901   1.33618e-13    0.00430272        103244        103155        270975   2.44814e-13
     0.001001       288.028       288.159      0.202249       18.1022    -0.0825132             0       16.9048     0.0495718             0       40.3927     -0.246681             0       0.22846             0             0      0.228783   1.80028e-13     0.0052925        103245        103155        270963   3.29845e-13
    0.0015015       287.915       288.164      0.216543       18.0723     -0.118077             0       16.9083     0.0752651             0       40.1407     -0.343351             0      0.478967             0             0      0.228108   3.38931e-13    0.00822661        103246        103155        270929   6.20985e-13
     0.002002       287.801       288.168      0.230841       18.0421     -0.153604             0       16.9117      0.100965             0       39.8873     -0.439759             0       0.72997             0             0      0.227431   4.98663e-13     0.0111682        103247        103154        270895   9.13644e-13
    0.0025025        287.63        288.18      0.246226       17.9622     -0.179818             0       16.8824      0.128216             0       39.2856     -0.471134             0       1.10445             0             0      0.226328   8.64716e-13     0.0159656        103249        103154        270902   1.58432e-12
     0.003003       287.459       288.192      0.261574       17.8823     -0.206078             0       16.8529      0.155473             0       38.6812     -0.502093             0       1.47949             0             0      0.225223   1.23307e-12     0.0207709        103250        103153        270908   2.25921e-12
    0.0035035       287.311        288.21      0.270704       17.7943     -0.239728             0       16.7787      0.183766             0       37.6411     -0.464294             0       1.94876             0             0      0.223813   1.98255e-12     0.0268988        103253        103153        270930   3.63241e-12
     0.004004       287.164       288.228      0.279788       17.7067     -0.273875             0       16.7043      0.212058             0          36.6     -0.426336             0       2.41868             0             0      0.222403   2.74032e-12     0.0330323        103255        103152        270952   5.02077e-12
    0.0045045       287.125       288.248      0.283321       17.6614      -0.36973             0       16.6052      0.240277             0       35.4376     -0.368691             0       2.96953             0             0      0.220832   4.52501e-12     0.0398606        103258        103151        270973   8.29066e-12
   0.00500501       287.087       288.268      0.286833       17.6168     -0.466356             0        16.506      0.268482             0       34.2782     -0.311207             0        3.5211             0             0      0.219258   6.31877e-12     0.0467045        103261        103151        270995   1.15772e-11
   0.00550551        287.11       288.284      0.288294       17.6491     -0.639312             0       16.4003      0.295277             0       33.4024     -0.269694             0       4.14299             0             0       0.21733   9.00968e-12      0.055088        103265        103150        271071   1.65074e-11
   0.00600601       287.134       288.301      0.289741       17.6825     -0.812067             0       16.2946      0.322026             0       32.5309     -0.229362             0       4.76599             0             0      0.215393   1.17079e-11     0.0635089        103269        103149        271148    2.1451e-11
   0.00650651       287.186       288.313      0.289958       17.8092     -0.968291             0       16.1974      0.345026             0       32.0145     -0.286362             0        5.4795             0             0       0.21275   1.50036e-11      0.075003        103274        103148        271236   2.74894e-11
   0.00700701       287.239       288.326      0.290152       17.9365       -1.1231             0       16.1005      0.367921             0       31.5037     -0.346446             0       6.19524             0             0      0.210095   1.82948e-11     0.0865486        103279        103148        271324   3.35195e-11
   0.00750751       287.358       288.334      0.288729       18.1109      -1.17822             0       16.0326      0.383483             0        31.388     -0.623735             0       7.06864             0             0      0.206607   2.12675e-11      0.101713        103285        103147        271437    3.8966e-11
   0.00800801       287.478       288.341      0.287264        18.284      -1.23117             0       15.9652      0.399036             0       31.2793     -0.902539             0       7.94498             0             0       0.20312   2.42123e-11      0.116873        103291        103146        271552   4.43615e-11
   0.00850851       287.609       288.342      0.283182       18.3827      -1.15055             0        15.929      0.414071             0       31.5972      -1.27449             0        9.0025             0             0      0.199699   2.54476e-11      0.131751        103298        103145        271791   4.66247e-11
   0.00900901        287.74       288.344      0.279054       18.4782      -1.06834             0       15.8926      0.429292             0       31.9164      -1.64245             0       10.0619             0             0      0.196287   2.66547e-11      0.146585        103305        103144        272033   4.88365e-11
   0.00950951       287.856       288.343      0.272399       18.4003      -0.89955             0       15.8514      0.454704             0       32.3074      -1.79232             0       11.2231             0             0       0.19342   2.63303e-11      0.159055        103312        103142        272423    4.8242e-11
      0.01001       287.971       288.342      0.265753       18.3207     -0.732851             0       15.8091      0.480373             0       32.6932      -1.93568             0       12.3849             0             0       0.19055   2.59793e-11      0.171533        103320        103141        272814   4.75989e-11
    0.0105105       288.069       288.343      0.259556       18.1506     -0.668799             0       15.7217      0.518621             0        32.822      -1.76077             0       13.5742             0             0      0.187591   2.43276e-11      0.184397        103328        103139        273316   4.45728e-11
     0.011011       288.165       288.345      0.253417       17.9805     -0.608796             0       15.6329      0.557013             0       32.9494      -1.58107             0       14.7643             0             0      0.184622   2.26376e-11      0.197303        103336        103138        273820   4.14763e-11
    0.0115115       288.199       288.351      0.249867       17.8093     -0.728796             0       15.4866        0.6018             0       33.0174      -1.18876             0       15.9905             0             0      0.181234   1.92403e-11      0.212032        103346        103136        274459   3.52519e-11
     0.012012       288.233       288.357      0.246345       17.6338     -0.847602             0       15.3388      0.646599             0       33.0917      -0.79344             0       17.2175             0             0      0.177842   1.58278e-11      0.226776        103355        103134        275102   2.89994e-11
    0.0125125       288.244       288.364      0.243955       17.2823     -0.917834             0       15.1297       0.69191             0       33.4215     -0.276055             0       18.4808             0             0      0.174327   1.17919e-11      0.242059        103364        103133        275893   2.16049e-11
     0.013013       288.256       288.372      0.241598       16.9252     -0.983676             0       14.9189      0.737061             0       33.7578      0.241701             0       19.7437             0             0      0.170821   7.79636e-12      0.257302        103373        103131        276690   1.42844e-11
    0.0135135       288.339        288.38      0.240451       16.3569     -0.885036             0       14.6415       0.77624             0       34.3358      0.773363             0        20.996             0             0      0.167671   5.31515e-12      0.270998        103382        103129        277720   9.73834e-12
     0.014014       288.424       288.389      0.239354       15.7916     -0.788472             0       14.3626      0.814978             0       34.9178       1.30121             0        22.247             0             0      0.164533   2.87574e-12       0.28464        103391        103127        278757   5.26889e-12
    0.0145145       288.558       288.395      0.239949        15.327     -0.763974             0       14.0325      0.838392             0       35.6374       1.69676             0       23.4522             0             0      0.161828   1.88742e-12      0.296402        103399        103125        280063    3.4581e-12
     0.015015       288.692         288.4      0.240572       14.8713     -0.747013             0       13.7016       0.86116             0       36.3556        2.0864             0       24.6556             0             0      0.159166   9.17567e-13      0.307979        103407        103123        281378   1.68115e-12
    0.0155155       288.779       288.403      0.242111       14.7029     -0.973742             0       13.3449      0.863019             0       37.0291       2.28509             0       25.7999             0             0      0.157875   5.44867e-13      0.313592        103413        103121        282935   9.98297e-13
     0.016016       288.865       288.406       0.24363       14.5407      -1.20518             0        12.988      0.864291             0        37.691       2.47922             0       26.9427             0             0      0.156642   1.82001e-13      0.318951        103420        103119        284501    3.3346e-13
    0.0165165       288.889       288.406      0.244545       14.5693      -1.57906             0       12.6274      0.847814             0       38.0031       2.53547             0       28.0397             0             0       0.15717   1.16615e-13      0.316654        103425        103118        286341   2.13661e-13
     0.017017       288.911       288.406      0.245347       14.5986      -1.95269             0       12.2674      0.831069             0       38.2996       2.58983             0       29.1356             0             0      0.157757   5.29786e-14      0.314098        103430        103116        288186   9.70667e-14
    0.0175175       288.892       288.402      0.242969       14.6453        -2.319             0       11.9244      0.806702             0       38.1482       2.59063             0       30.2015             0             0      0.160039   3.90258e-14      0.304174        103433        103114        290171   7.15025e-14
     0.018018       288.872       288.399      0.240507       14.6894      -2.68234             0       11.5822      0.782329             0       37.9789        2.5905             0       31.2672             0             0      0.162383   2.53413e-14      0.293982        103436        103113        292159   4.64301e-14
    0.0185185       288.808       288.392      0.235784       14.6606      -2.96626             0       11.2618      0.757762             0       37.3269       2.56554             0       32.3303             0             0      0.166378   1.88456e-14       0.27661        103437        103111        294252   3.45287e-14
     0.019019       288.744       288.385      0.231143       14.6289      -3.24665             0       10.9419      0.733193             0       36.6545       2.53872             0       33.3952             0             0      0.170368   1.24701e-14      0.259266        103438        103110        296345   2.28475e-14
    0.0195195       288.674        288.38      0.228542        14.524      -3.43792             0       10.6365      0.708589             0       35.4676       2.46514             0       34.5056             0             0      0.174199   9.13674e-15      0.242613        103438        103108        298473   1.67402e-14
      0.02002       288.605       288.375      0.226015       14.4176      -3.62692             0       10.3315      0.683902             0       34.2665       2.38921             0       35.6184             0             0      0.177969   5.88015e-15      0.226228        103438        103107        300596   1.07735e-14
    0.0205205       288.564       288.377      0.225279       14.2733      -3.76167             0       10.0383      0.657204             0       32.7228       2.25708             0       36.7893             0             0      0.180266   4.46545e-15       0.21624        103437        103106        302578   8.18153e-15
     0.021021       288.523       288.379       0.22455        14.129      -3.89601             0       9.74548      0.630434             0       31.1742       2.12217             0        37.961             0             0      0.182519   3.08866e-15      0.206441        103436        103104        304552     5.659e-15
    0.0215215       288.502       288.389      0.223985       13.9862      -4.02116             0       9.46255      0.601989             0       29.5113       1.92412             0       39.1532             0             0      0.183779   2.57669e-15      0.200962        103434        103103        306314   4.72097e-15
     0.022022       288.481       288.398      0.223495       13.8443      -4.14725             0       9.17975      0.573471             0       27.8522       1.72318             0       40.3431             0             0      0.185018   2.08001e-15      0.195574        103433        103102        308060   3.81096e-15
    0.0225225       288.468        288.41      0.224605       13.7242      -4.29382             0        8.8996      0.543348             0       26.2758       1.45939             0       41.4835             0             0      0.185804   1.91561e-15      0.192158        103431        103101        309444   3.50976e-15
     0.023023       288.455       288.421      0.225775       13.6043      -4.44111             0       8.61937      0.513029             0       24.7099       1.19376             0       42.6184             0             0       0.18657    1.7572e-15      0.188827        103429        103100        310809   3.21952e-15
    0.0235235        288.45       288.431      0.228162       13.4889       -4.6035             0       8.33769      0.478653             0       23.3594      0.889936             0       43.6361             0             0      0.186933   1.72289e-15      0.187251        103428        103099        311761   3.15665e-15
     0.024024       288.445       288.441      0.230625       13.3713       -4.7646             0       8.05634      0.443932             0       22.0226      0.586218             0        44.646             0             0      0.187279   1.69105e-15      0.185747        103427        103098        312691   3.09832e-15
    0.0245245       288.445       288.451      0.234577       13.2095      -4.90041             0        7.7817      0.402358             0       20.9568      0.284553             0       45.4998             0             0      0.187296   1.70841e-15      0.185673        103426        103097        313173   3.13012e-15
     0.025025       288.445        288.46      0.238534       13.0435      -5.03303             0       7.50811       0.36046             0       19.9089    -0.0161996             0       46.3451             0             0      0.187297   1.72716e-15      0.185668        103426        103097        313628   3.16448e-15
    0.0255255       288.447       288.469      0.242582       12.7966        -5.105             0       7.25458      0.312411             0       19.2009     -0.299616             0       47.0267             0             0      0.186992   1.77257e-15      0.186989        103427        103097        313566   3.24767e-15
     0.026026       288.449       288.479       0.24647       12.5467       -5.1741             0       7.00246      0.264183             0       18.5155     -0.583641             0       47.6998             0             0      0.186676   1.81859e-15      0.188367        103427        103096        313476     3.332e-15
    0.0265265       288.447       288.488      0.247428       12.2388      -5.19108             0       6.77605      0.212691             0       18.2429     -0.878762             0        48.218             0             0      0.186125   1.87595e-15       0.19076        103428        103096        312865   3.43709e-15
     0.027027       288.446       288.496      0.248209        11.931      -5.20754             0       6.55107      0.161147             0       17.9962      -1.17692             0       48.7278             0             0      0.185578   1.93252e-15       0.19314        103429        103096        312226   3.54073e-15
    0.0275275       288.439       288.504      0.245893       11.6254      -5.21474             0        6.3511      0.108684             0        18.204       -1.5283             0       49.0908             0             0      0.185086   1.97524e-15      0.195279        103430        103097        311112   3.61901e-15
     0.028028       288.433        288.51      0.243481       11.3218      -5.22282             0        6.1526     0.0562621             0       18.4361      -1.88373             0       49.4444             0             0      0.184607   2.01646e-15       0.19736        103431        103097        309976   3.69453e-15
    0.0285285       288.425       288.513      0.239458       11.0513      -5.24559             0       5.97871    0.00452881             0       19.0789      -2.30735             0       49.6411             0             0      0.184355   2.03237e-15      0.198454        103433        103097        308472   3.72367e-15
     0.029029       288.416       288.516      0.235478       10.7819      -5.26859             0       5.80635    -0.0471217             0       19.7384      -2.73382             0       49.8256             0             0       0.18412   2.04707e-15      0.199479        103434        103097        306954   3.75062e-15
    0.0295295       288.397       288.516      0.232205       10.5281      -5.29528             0        5.6586    -0.0974276             0        20.669      -3.20646             0       49.8123             0             0      0.184142   2.04224e-15      0.199382        103435        103098        305229   3.74177e-15
      0.03003       288.376       288.516      0.228984       10.2736      -5.32119             0       5.51208     -0.147497             0       21.6074      -3.67968             0       49.7825             0             0      0.184176   2.03649e-15      0.199233        103437        103099        303495   3.73123e-15
    0.0305305       288.342       288.515      0.226566       10.0084      -5.33505             0       5.38485     -0.193862             0       22.6667      -4.16183             0       49.4955             0             0      0.184398   2.01635e-15      0.198271        103439        103100        301633   3.69433e-15
     0.031031       288.309       288.513      0.224114       9.74225      -5.34801             0       5.25828     -0.239658             0       23.7261      -4.64173             0       49.1885             0             0      0.184618   1.99633e-15      0.197314        103441        103101        299766   3.65766e-15
    0.0315315       288.281       288.512      0.221152       9.46161      -5.34756             0       5.14181     -0.276833             0       24.7887      -5.08755             0       48.5797             0             0       0.18482   1.97825e-15      0.196434        103444        103102        297812   3.62452e-15
     0.032032       288.253        288.51      0.218133        9.1809      -5.34654             0       5.02619     -0.313203             0       25.8453      -5.52952             0       47.9499             0             0      0.185016    1.9607e-15      0.195583        103447        103104        295859   3.59236e-15
    0.0325325       288.239       288.508      0.214266       8.89926      -5.33729             0         4.923     -0.337784             0       26.8152      -5.91529             0       47.0126             0             0      0.185116    1.9509e-15      0.195149        103451        103105        293918   3.57441e-15
     0.033033       288.225       288.506      0.210336       8.61885      -5.32752             0       4.82157     -0.361588             0       27.7808       -6.2997             0       46.0581             0             0      0.185214   1.94121e-15      0.194722        103456        103107        291981   3.55666e-15
    0.0335335       288.216       288.505      0.205509       8.35571      -5.31043             0       4.74497     -0.374387             0       28.6854      -6.66497             0       44.8616             0             0      0.185287   1.93309e-15      0.194404        103462        103109        290100   3.54179e-15
     0.034034       288.207       288.505      0.200675       8.09524      -5.29295             0       4.67081     -0.386716             0       29.5961      -7.02944             0       43.6533             0             0      0.185358    1.9251e-15      0.194094        103467        103110        288229   3.52714e-15
    0.0345345         288.2       288.504      0.195754       7.87131         -5.27             0       4.62996      -0.39261             0       30.5886      -7.38287             0       42.2837             0             0       0.18541   1.91877e-15      0.193871        103474        103112        286517   3.51555e-15
     0.035035       288.193       288.503      0.190883        7.6517      -5.24719             0         4.592     -0.398409             0       31.5892      -7.73081             0       40.9057             0             0      0.185453   1.91279e-15      0.193681        103480        103114        284818   3.50459e-15
    0.0355355       288.185       288.502      0.186686       7.48945      -5.22637             0       4.59224     -0.402947             0       32.6985      -8.00585             0       39.4163             0             0      0.185396   1.91134e-15      0.193929        103485        103116        283298   3.50193e-15
     0.036036       288.177       288.501      0.182507       7.33328      -5.20602             0       4.59508     -0.407236             0       33.8201      -8.27603             0       37.9222             0             0      0.185328    1.9103e-15      0.194226        103491        103118        281789   3.50002e-15
    0.0365365       288.167       288.501      0.178557       7.25538      -5.19185             0       4.63125      -0.40831             0       35.1007      -8.48363             0       36.3656             0             0      0.185112   1.91445e-15      0.195165        103496        103120        280413   3.50764e-15
     0.037037       288.156       288.501      0.174657       7.18508      -5.17755             0       4.66921     -0.408786             0       36.4042      -8.69275             0       34.8052             0             0      0.184893   1.91881e-15      0.196118        103500        103122        279053   3.51562e-15
    0.0375375       288.151       288.501      0.171373       7.20994      -5.16171             0       4.72943     -0.401774             0       37.9945      -8.92085             0       33.1954             0             0      0.184636   1.92563e-15      0.197234        103502        103124        277889   3.52811e-15
     0.038038       288.146       288.501      0.168292       7.24411      -5.14398             0       4.79144     -0.394278             0       39.5899      -9.15391             0       31.5829             0             0      0.184381   1.93238e-15      0.198342        103504        103127        276741   3.54048e-15
    0.0385385       288.148       288.499      0.167682       7.39166       -5.1032             0       4.87525     -0.380894             0       41.2465      -9.44742             0       29.9374             0             0      0.184151    1.9383e-15      0.199341        103503        103129        275786   3.55132e-15
     0.039039       288.152       288.496      0.167314       7.55073      -5.05779             0       4.96112     -0.367316             0       42.8729      -9.74214             0       28.2929             0             0      0.183922   1.94403e-15       0.20034        103502        103131        274845   3.56182e-15
    0.0395395       288.159        288.49      0.169807       7.84604      -4.95773             0       5.07135     -0.351432             0       44.1416      -10.0513             0       26.6597             0             0      0.183691   1.94759e-15      0.201345        103498        103133        274079   3.56835e-15
      0.04004       288.167       288.484       0.17245       8.15404      -4.85049             0       5.18235     -0.335515             0       45.3825       -10.355             0       25.0293             0             0      0.183466    1.9506e-15      0.202322        103494        103135        273339   3.57387e-15
    0.0405405       288.176       288.474      0.176815       8.60789      -4.66067             0       5.30219     -0.319217             0        46.302      -10.5946             0       23.4308             0             0      0.183313    1.9473e-15      0.202986        103488        103138        272892   3.56781e-15
     0.041041       288.186       288.464      0.181235       9.07195      -4.46358             0       5.41999      -0.30278             0       47.2299      -10.8276             0       21.8349             0             0      0.183172   1.94248e-15      0.203598        103481        103140        272463   3.55898e-15
    0.0415415       288.201       288.452      0.186274       9.65036      -4.18498             0       5.51491     -0.284789             0       48.2511      -10.9879             0       20.2678             0             0      0.183169   1.92075e-15      0.203614        103473        103142        272248   3.51917e-15
     0.042042       288.216        288.44      0.191254       10.2304      -3.90283             0       5.60643     -0.266655             0       49.2823      -11.1365             0       18.7011             0             0      0.183186   1.89739e-15       0.20354        103464        103144        272043   3.47637e-15
    0.0425425       288.227       288.429      0.195583       10.8283      -3.58197             0       5.66085      -0.24696             0       50.4217      -11.1574             0       17.1383             0             0      0.183428   1.85619e-15      0.202484        103454        103146        271959   3.40089e-15
     0.043043       288.238       288.417      0.199815       11.4174      -3.26413             0       5.71255       -0.2276             0       51.5164      -11.1522             0       15.5734             0             0      0.183693   1.81443e-15      0.201334        103444        103148        271892   3.32438e-15
    0.0435435       288.236       288.409      0.203012        11.912      -2.97827             0       5.73532      -0.21179             0       52.1346      -10.8685             0       13.9854             0             0      0.184189   1.76669e-15      0.199179        103433        103150        272002   3.23691e-15
     0.044044       288.235       288.401      0.206193       12.3929      -2.69914             0       5.75461     -0.196739             0       52.6826      -10.5541             0       12.4001             0             0      0.184693   1.71877e-15      0.196987        103422        103151        272119   3.14911e-15
    0.0445445       288.229       288.395      0.209205        12.731      -2.48961             0       5.73789     -0.189556             0        52.502      -9.92196             0        10.844             0             0      0.185283   1.66897e-15      0.194424        103412        103153        272315   3.05786e-15
     0.045045       288.224        288.39      0.212045       13.0584      -2.28381             0       5.71544     -0.182432             0       52.2918      -9.26533             0       9.29901             0             0      0.185856    1.6206e-15      0.191929        103401        103155        272517   2.96925e-15
    0.0455455       288.221       288.383      0.213144       13.2779      -2.11569             0       5.63516     -0.175893             0       51.7823      -8.36056             0       7.86685             0             0      0.186271   1.58681e-15      0.190127        103390        103157        272786   2.90734e-15