# vtk DataFile Version 2.0
sampleSurface
ASCII
DATASET POLYDATA
POINTS 16001 float
0 0 0.0005 0 0.001 0.0005 0.001 0 0.0005 -0.001 0
0.0005 0.001 0.001 0.0005 -0.001 0.001 0.0005 0.002 0 0.0005
0 0.002 0.0005 -0.002 0 0.0005 0.002 0.001 0.0005 0.001
0.002 0.0005 -0.002 0.001 0.0005 -0.001 0.002 0.0005 0.002 0.002
0.0005 -0.002 0.002 0.0005 0.003 0 0.0005 0 0.003 0.0005
-0.003 0 0.0005 0.003 0.001 0.0005 0.001 0.003 0.0005 -0.003
0.001 0.0005 -0.001 0.003 0.0005 0.003 0.002 0.0005 0.002 0.003
0.0005 -0.003 0.002 0.0005 -0.002 0.003 0.0005 0.004 0 0.0005
0 0.004 0.0005 -0.004 0 0.0005 0.004 0.001 0.0005 0.001
0.004 0.0005 -0.004 0.001 0.0005 -0.001 0.004 0.0005 0.003 0.003
0.0005 -0.003 0.003 0.0005 0.004 0.002 0.0005 0.002 0.004 0.0005
-0.004 0.002 0.0005 -0.002 0.004 0.0005 0.004 0.003 0.0005 0.003
0.004 0.0005 -0.004 0.003 0.0005 -0.003 0.004 0.0005 0.005 0
0.0005 0 0.005 0.0005 -0.005 0 0.0005 0.005 0.001 0.0005
0.001 0.005 0.0005 -0.005 0.001 0.0005 -0.001 0.005 0.0005 0.005
0.002 0.0005 0.002 0.005 0.0005 -0.005 0.002 0.0005 -0.002 0.005
0.0005 0.004 0.004 0.0005 -0.004 0.004 0.0005 0.005 0.003 0.0005
0.003 0.005 0.0005 -0.005 0.003 0.0005 -0.003 0.005 0.0005 0.006
0 0.0005 0 0.006 0.0005 -0.006 0 0.0005 0.006 0.001
0.0005 0.001 0.006 0.0005 -0.006 0.001 0.0005 -0.001 0.006 0.0005
0.006 0.002 0.0005 0.002 0.006 0.0005 -0.006 0.002 0.0005 -0.002
0.006 0.0005 0.005 0.004 0.0005 0.004 0.005 0.0005 -0.005 0.004
0.0005 -0.004 0.005 0.0005 0.006 0.003 0.0005 0.003 0.006 0.0005
-0.006 0.003 0.0005 -0.003 0.006 0.0005 0.007 0 0.0005 0
0.007 0.0005 -0.007 0 0.0005 0.007 0.001 0.0005 0.005 0.005
0.0005 0.001 0.007 0.0005 -0.007 0.001 0.0005 -0.005 0.005 0.0005
-0.001 0.007 0.0005 0.006 0.004 0.0005 0.004 0.006 0.0005 -0.006
0.004 0.0005 -0.004 0.006 0.0005 0.007 0.002 0.0005 0.002 0.007
0.0005 -0.007 0.002 0.0005 -0.002 0.007 0.0005 0.007 0.003 0.0005
0.003 0.007 0.0005 -0.007 0.003 0.0005 -0.003 0.007 0.0005 0.006
0.005 0.0005 0.005 0.006 0.0005 -0.006 0.005 0.0005 -0.005 0.006
0.0005 0.008 0 0.0005 0 0.008 0.0005 -0.008 0 0.0005
0.008 0.001 0.0005 0.001 0.008 0.0005 -0.008 0.001 0.0005 -0.001
0.008 0.0005 0.007 0.004 0.0005 0.004 0.007 0.0005 -0.007 0.004
0.0005 -0.004 0.007 0.0005 0.008 0.002 0.0005 0.002 0.008 0.0005
-0.008 0.002 0.0005 -0.002 0.008 0.0005 0.006 0.006 0.0005 -0.006
0.006 0.0005 0.008 0.003 0.0005 0.003 0.008 0.0005 -0.008 0.003
0.0005 -0.003 0.008 0.0005 0.007 0.005 0.0005 0.005 0.007 0.0005
-0.007 0.005 0.0005 -0.005 0.007 0.0005 0.008 0.004 0.0005 0.004
0.008 0.0005 -0.008 0.004 0.0005 -0.004 0.008 0.0005 0.009 0
0.0005 0 0.009 0.0005 -0.009 0 0.0005 0.009 0.001 0.0005
0.001 0.009 0.0005 -0.009 0.001 0.0005 -0.001 0.009 0.0005 0.009
0.002 0.0005 0.002 0.009 0.0005 -0.009 0.002 0.0005 -0.002 0.009
0.0005 0.007 0.006 0.0005 0.006 0.007 0.0005 -0.007 0.006 0.0005
-0.006 0.007 0.0005 0.008 0.005 0.0005 0.005 0.008 0.0005 -0.008
0.005 0.0005 -0.005 0.008 0.0005 0.009 0.003 0.0005 0.003 0.009
0.0005 -0.009 0.003 0.0005 -0.003 0.009 0.0005 0.009 0.004 0.0005
0.004 0.009 0.0005 -0.009 0.004 0.0005 -0.004 0.009 0.0005 0.007
0.007 0.0005 -0.007 0.007 0.0005 0.008 0.006 0.0005 0.006 0.008
0.0005 -0.008 0.006 0.0005 -0.006 0.008 0.0005 0.01 0 0.0005
0 0.01 0.0005 -0.01 0 0.0005 0.01 0.001 0.0005 0.001
0.01 0.0005 -0.01 0.001 0.0005 -0.001 0.01 0.0005 0.01 0.002
0.0005 0.002 0.01 0.0005 -0.01 0.002 0.0005 -0.002 0.01 0.0005
0.009 0.005 0.0005 0.005 0.009 0.0005 -0.009 0.005 0.0005 -0.005
0.009 0.0005 0.01 0.003 0.0005 0.003 0.01 0.0005 -0.01 0.003
0.0005 -0.003 0.01 0.0005 0.008 0.007 0.0005 0.007 0.008 0.0005
-0.008 0.007 0.0005 -0.007 0.008 0.0005 0.01 0.004 0.0005 0.004
0.01 0.0005 -0.01 0.004 0.0005 -0.004 0.01 0.0005 0.009 0.006
0.0005 0.006 0.009 0.0005 -0.009 0.006 0.0005 -0.006 0.009 0.0005
0.011 0 0.0005 0 0.011 0.0005 -0.011 0 0.0005 0.011
0.001 0.0005 0.001 0.011 0.0005 -0.011 0.001 0.0005 -0.001 0.011
0.0005 0.011 0.002 0.0005 0.002 0.011 0.0005 -0.011 0.002 0.0005
-0.002 0.011 0.0005 0.01 0.005 0.0005 0.005 0.01 0.0005 -0.01
0.005 0.0005 -0.005 0.01 0.0005 0.008 0.008 0.0005 -0.008 0.008
0.0005 0.011 0.003 0.0005 0.009 0.007 0.0005 0.007 0.009 0.0005
0.003 0.011 0.0005 -0.011 0.003 0.0005 -0.009 0.007 0.0005 -0.007
0.009 0.0005 -0.003 0.011 0.0005 0.01 0.006 0.0005 0.006 0.01
0.0005 -0.01 0.006 0.0005 -0.006 0.01 0.0005 0.011 0.004 0.0005
0.004 0.011 0.0005 -0.011 0.004 0.0005 -0.004 0.011 0.0005 0.012
0 0.0005 0 0.012 0.0005 -0.012 0 0.0005 0.012 0.001
0.0005 0.009 0.008 0.0005 0.008 0.009 0.0005 0.001 0.012 0.0005
-0.012 0.001 0.0005 -0.009 0.008 0.0005 -0.008 0.009 0.0005 -0.001
0.012 0.0005 0.011 0.005 0.0005 0.005 0.011 0.0005 -0.011 0.005
0.0005 -0.005 0.011 0.0005 0.012 0.002 0.0005 0.002 0.012 0.0005
-0.012 0.002 0.0005 -0.002 0.012 0.0005 0.01 0.007 0.0005 0.007
0.01 0.0005 -0.01 0.007 0.0005 -0.007 0.01 0.0005 0.012 0.003
0.0005 0.003 0.012 0.0005 -0.012 0.003 0.0005 -0.003 0.012 0.0005
0.011 0.006 0.0005 0.006 0.011 0.0005 -0.011 0.006 0.0005 -0.006
0.011 0.0005 0.012 0.004 0.0005 0.004 0.012 0.0005 -0.012 0.004
0.0005 -0.004 0.012 0.0005 0.009 0.009 0.0005 -0.009 0.009 0.0005
0.01 0.008 0.0005 0.008 0.01 0.0005 -0.01 0.008 0.0005 -0.008
0.01 0.0005 0.013 0 0.0005 0 0.013 0.0005 -0.013 0
0.0005 0.012 0.005 0.0005 0.005 0.012 0.0005 -0.012 0.005 0.0005
-0.005 0.012 0.0005 0.013 0.001 0.0005 0.011 0.007 0.0005 0.007
0.011 0.0005 0.001 0.013 0.0005 -0.013 0.001 0.0005 -0.011 0.007
0.0005 -0.007 0.011 0.0005 -0.001 0.013 0.0005 0.013 0.002 0.0005
0.002 0.013 0.0005 -0.013 0.002 0.0005 -0.002 0.013 0.0005 0.013
0.003 0.0005 0.003 0.013 0.0005 -0.013 0.003 0.0005 -0.003 0.013
0.0005 0.012 0.006 0.0005 0.006 0.012 0.0005 -0.012 0.006 0.0005
-0.006 0.012 0.0005 0.01 0.009 0.0005 0.009 0.01 0.0005 -0.01
0.009 0.0005 -0.009 0.01 0.0005 0.013 0.004 0.0005 0.011 0.008
0.0005 0.008 0.011 0.0005 0.004 0.013 0.0005 -0.013 0.004 0.0005
-0.011 0.008 0.0005 -0.008 0.011 0.0005 -0.004 0.013 0.0005 0.012
0.007 0.0005 0.007 0.012 0.0005 -0.012 0.007 0.0005 -0.007 0.012
0.0005 0.013 0.005 0.0005 0.005 0.013 0.0005 -0.013 0.005 0.0005
-0.005 0.013 0.0005 0.014 0 0.0005 0 0.014 0.0005 -0.014
0 0.0005 0.014 0.001 0.0005 0.001 0.014 0.0005 -0.014 0.001
0.0005 -0.001 0.014 0.0005 0.014 0.002 0.0005 0.01 0.01 0.0005
0.002 0.014 0.0005 -0.014 0.002 0.0005 -0.01 0.01 0.0005 -0.002
0.014 0.0005 0.011 0.009 0.0005 0.009 0.011 0.0005 -0.011 0.009
0.0005 -0.009 0.011 0.0005 0.013 0.006 0.0005 0.006 0.013 0.0005
-0.013 0.006 0.0005 -0.006 0.013 0.0005 0.014 0.003 0.0005 0.003
0.014 0.0005 -0.014 0.003 0.0005 -0.003 0.014 0.0005 0.012 0.008
0.0005 0.008 0.012 0.0005 -0.012 0.008 0.0005 -0.008 0.012 0.0005
0.014 0.004 0.0005 0.004 0.014 0.0005 -0.014 0.004 0.0005 -0.004
0.014 0.0005 0.013 0.007 0.0005 0.007 0.013 0.0005 -0.013 0.007
0.0005 -0.007 0.013 0.0005 0.011 0.01 0.0005 0.01 0.011 0.0005
-0.011 0.01 0.0005 -0.01 0.011 0.0005 0.014 0.005 0.0005 0.005
0.014 0.0005 -0.014 0.005 0.0005 -0.005 0.014 0.0005 0.015 0
0.0005 0.012 0.009 0.0005 0.009 0.012 0.0005 0 0.015 0.0005
-0.015 0 0.0005 -0.012 0.009 0.0005 -0.009 0.012 0.0005 0.015
0.001 0.0005 0.001 0.015 0.0005 -0.015 0.001 0.0005 -0.001 0.015
0.0005 0.015 0.002 0.0005 0.002 0.015 0.0005 -0.015 0.002 0.0005
-0.002 0.015 0.0005 0.014 0.006 0.0005 0.006 0.014 0.0005 -0.014
0.006 0.0005 -0.006 0.014 0.0005 0.013 0.008 0.0005 0.008 0.013
0.0005 -0.013 0.008 0.0005 -0.008 0.013 0.0005 0.015 0.003 0.0005
0.003 0.015 0.0005 -0.015 0.003 0.0005 -0.003 0.015 0.0005 0.015
0.004 0.0005 0.004 0.015 0.0005 -0.015 0.004 0.0005 -0.004 0.015
0.0005 0.011 0.011 0.0005 -0.011 0.011 0.0005 0.012 0.01 0.0005
0.01 0.012 0.0005 -0.012 0.01 0.0005 -0.01 0.012 0.0005 0.014
0.007 0.0005 0.007 0.014 0.0005 -0.014 0.007 0.0005 -0.007 0.014
0.0005 0.015 0.005 0.0005 0.013 0.009 0.0005 0.009 0.013 0.0005
0.005 0.015 0.0005 -0.015 0.005 0.0005 -0.013 0.009 0.0005 -0.009
0.013 0.0005 -0.005 0.015 0.0005 0.016 0 0.0005 0 0.016
0.0005 -0.016 0 0.0005 0.016 0.001 0.0005 0.001 0.016 0.0005
-0.016 0.001 0.0005 -0.001 0.016 0.0005 0.016 0.002 0.0005 0.002
0.016 0.0005 -0.016 0.002 0.0005 -0.002 0.016 0.0005 0.014 0.008
0.0005 0.008 0.014 0.0005 -0.014 0.008 0.0005 -0.008 0.014 0.0005
0.015 0.006 0.0005 0.006 0.015 0.0005 -0.015 0.006 0.0005 -0.006
0.015 0.0005 0.016 0.003 0.0005 0.012 0.011 0.0005 0.011 0.012
0.0005 0.003 0.016 0.0005 -0.016 0.003 0.0005 -0.012 0.011 0.0005
-0.011 0.012 0.0005 -0.003 0.016 0.0005 0.013 0.01 0.0005 0.01
0.013 0.0005 -0.013 0.01 0.0005 -0.01 0.013 0.0005 0.016 0.004
0.0005 0.004 0.016 0.0005 -0.016 0.004 0.0005 -0.004 0.016 0.0005
0.015 0.007 0.0005 0.007 0.015 0.0005 -0.015 0.007 0.0005 -0.007
0.015 0.0005 0.014 0.009 0.0005 0.009 0.014 0.0005 -0.014 0.009
0.0005 -0.009 0.014 0.0005 0.016 0.005 0.0005 0.005 0.016 0.0005
-0.016 0.005 0.0005 -0.005 0.016 0.0005 0.012 0.012 0.0005 -0.012
0.012 0.0005 0.015 0.008 0.0005 0.008 0.015 0.0005 -0.015 0.008
0.0005 -0.008 0.015 0.0005 0.017 0 0.0005 0 0.017 0.0005
-0.017 0 0.0005 0.013 0.011 0.0005 0.011 0.013 0.0005 -0.013
0.011 0.0005 -0.011 0.013 0.0005 0.017 0.001 0.0005 0.001 0.017
0.0005 -0.017 0.001 0.0005 -0.001 0.017 0.0005 0.016 0.006 0.0005
0.006 0.016 0.0005 -0.016 0.006 0.0005 -0.006 0.016 0.0005 0.017
0.002 0.0005 0.002 0.017 0.0005 -0.017 0.002 0.0005 -0.002 0.017
0.0005 0.014 0.01 0.0005 0.01 0.014 0.0005 -0.014 0.01 0.0005
-0.01 0.014 0.0005 0.017 0.003 0.0005 0.003 0.017 0.0005 -0.017
0.003 0.0005 -0.003 0.017 0.0005 0.016 0.007 0.0005 0.007 0.016
0.0005 -0.016 0.007 0.0005 -0.007 0.016 0.0005 0.017 0.004 0.0005
0.004 0.017 0.0005 -0.017 0.004 0.0005 -0.004 0.017 0.0005 0.015
0.009 0.0005 0.009 0.015 0.0005 -0.015 0.009 0.0005 -0.009 0.015
0.0005 0.013 0.012 0.0005 0.012 0.013 0.0005 -0.012 0.013 0.0005
-0.013 0.012 0.0005 0.017 0.005 0.0005 0.005 0.017 0.0005 -0.017
0.005 0.0005 -0.005 0.017 0.0005 0.014 0.011 0.0005 0.011 0.014
0.0005 -0.014 0.011 0.0005 -0.011 0.014 0.0005 0.016 0.008 0.0005
0.008 0.016 0.0005 -0.016 0.008 0.0005 -0.008 0.016 0.0005 0.018
[...]
POINT_DATA 16001
FIELD attributes 17
p 1 16001 float
102335 102335 102365 102308 102364 102309 102394 102337 102286 102393 102365
102286 102312 102393 102289 102419 102341 102265 102419 102368 102266
102317 102418 102395 102269 102294 102439 102350 102243 102439 102376
102244 102325 102417 102272 102438 102401 102246 102301 102437 102420
102249 102278 102454 102360 102218 102454 102388 102219 102335 102452
102413 102220 102308 102436 102252 102450 102427 102222 102284 102465
102380 102189 102464 102413 102189 102351 102463 102435 102190 102320
102448 102439 102225 102256 102459 102440 102191 102292 102473 102397
102155 102472 102447 102438 102155 102228 102366 102457 102447 102193
102262 102470 102462 102156 102328 102466 102457 102157 102299 102454
102450 102195 102232 102482 102435 102118 102481 102483 102119 102390
102464 102460 102158 102267 102478 102495 102119 102344 102458 102198
102474 102472 102120 102309 102462 102457 102160 102236 102473 102466
102122 102273 102493 102429 102081 102492 102480 102082 102408 102489
102503 102083 102356 102466 102461 102163 102201 102472 102462 102124
102241 102486 102465 102085 102319 102486 102465 102086 102279 102467
102166 102476 102467 102126 102205 102506 102478 102046 102505 102501
102046 102434 102503 102487 102048 102375 102485 102466 102088 102246
102500 102434 102051 102329 102475 102472 102129 102170 102500 102424
102052 102284 102486 102469 102090 102210 102521 102131 102014 102520
102305 102015 102466 102517 102387 102017 102398 102496 102450 102054
102249 102480 102134 102514 102481 102469 102340 102019 102094 102175
102339 102494 102467 102057 102212 102513 102334 102022 102289 102532
102126 101985 102531 102482 102479 102252 101986 102099 102139 102596
102508 102398 102024 102251 102529 102451 101988 102755 102483 102473
102060 102178 102526 102425 101991 102860 102504 102461 102026 102214
102524 102397 101994 102960 102481 102105 102476 102481 102065 102143
102537 102525 101960 102519 102433 101997 103050 102537 102488 102490
102518 101961 102030 102180 102666 102536 102610 101963 102776 102534
102573 101966 102876 102515 102488 101999 103133 102475 102483 102071
102110 102531 102475 102506 102509 101969 102034 102145 102965 102500
102519 102002 103213 102525 102507 101972 103054 102537 102660 101936
102538 102627 101937 102741 102539 102479 102656 101939 102076 102807
102468 102510 102039 102112 102517 102533 101974 103135 102540 102626
101942 102893 102482 102536 102004 103289 102537 102584 101945 102975
102501 102550 101975 103214 102469 102505 102043 102078 102531 102569
101948 103060 102535 102472 102538 102688 101914 102007 103368 102536
102662 101915 102756 102539 102677 101916 102823 102522 102573 101950
103137 102485 102562 101976 103289 102541 102664 101918 102904 102541
102637 101921 102984 102496 102044 102473 102532 102009 103448 102507
102575 101950 103214 102537 102481 102560 102613 101924 101976 103367
103066 102536 102711 101892 102537 102680 101893 102773 102540 102681
101894 102839 102492 102575 101948 103288 102527 102604 101925 103140
102542 102493 102524 102666 101895 102009 103527 102916 102484 102557
101975 103447 102545 102648 101898 102992 102516 102597 101924 103215
102488 102572 101946 103365 102545 102630 101900 103071 102517 103601
102503 102585 101921 103286 102541 102621 101871 102496 102548 101975
103526 102542 102623 101871 102780 102544 102618 101900 103143 102543
102640 101872 102848 102494 102572 101944 103443 102546 102645 101873
102919 102537 102604 101899 103215 102550 102649 101874 102996 102501
102576 101917 103362 102511 102535 103599 103668 102554 102646 101876
103073 102503 102558 101942 103521 102525 102590 101896 103285 102550
102550 101850 102550 102509 102571 102572 101850 101914 102615 103438
102560 102633 101876 103144 102551 102587 101850 102621 102554 102618
101851 102626 102523 102577 101892 103358 102526 103667 102559 102612
101876 103215 102560 102646 101852 102632 102517 102545 103729 103595
102516 102558 101913 103516 102566 102660 101853 102637 102550 102600
101873 103284 102528 102569 101889 103433 102570 102657 101854 102642
102559 102600 101830 102559 102590 101830 102607 102561 102527 102540
102592 101830 102616 103729 103665 102531 102551 103788 103590 102566
102546 102584 102618 101831 101870 102624 103357 102571 102634 101854
102646 102532 102560 101887 103511 102572 102642 101831 102631 102576
102655 101832 102637 102571 102618 101853 102649 102546 102569 101868
103431 102537 103729 102542 102551 103789 103662 102577 102657 101833
102641 102542 102555 103847 103587 102568 102598 101811 102570 102593
101811 102611 102574 102600 101811 102619 102569 102592 101851 102653
102578 102613 101811 102627 102579 102548 102561 102643 101834 101866
102645 103509 102581 102628 101811 102633 102550 102548 103790 103729
102567 102571 101850 102657 102582 102553 102559 102622 101834 102649
103848 103660 102579 102637 101812 102637 102559 102555 103904 103585
102579 102641 101813 102641 102578 102608 101795 102584 102592 101835
102653 102580 102604 101795 102614 102570 102562 101849 102661 102586
102606 101794 102621 102578 102633 101815 102645 102559 103792 102589
102615 101794 102628 102561 102558 103850 103729 102589 102624 101794
102634 102568 102563 103905 103659 102588 102569 101835 102657 102584
102617 101817 102648 102583 102629 101794 102637 102579 102554 102664
103956 102582 102628 101795 102640 102598 102568 102567 102594 101818
102652 103852 103794 102596 102557 101834 102661 102586 102612 101779
102588 102610 101779 102618 102573 102569 103907 103728 102592 102611
101779 102624 102582 102620 101797 102643 102591 102586 102567 102615
101778 102667 102630 103957 102583 102618 101778 102635 102612 102573
101820 102657 102589 102602 102556 102607 101799 102664 102647 104003
102573 102618 101778 102638 102571 103855 102576 102575 103909 103794
102570 102588 102577 102614 101778 102670 102640 103959 102620 102564
101819 102661 102607 102591 101802 102651 102592 102613 101767 102592
102604 102572 102610 101767 102667 102621 104004 102594 102568 102606
102613 101766 101779 102642 102627 102591 102617 101766 102633 102619
102577 101804 102656 102621 102570 102664 104043 102585 102617 101765
102637 102576 102577 103911 103855 102576 102594 101781 102645 102586
102586 102674 103961 102582 102612 101764 102639 102600 102587 102671
104005 102629 102573 101803 102660 102586 102595 102582 102602 101764
101784 102649 102640 102619 102587 102667 104044 102596 102614 101754
102595 102613 101754 102620 102577 102588 101764 102642 102580 103911
102595 102587 102591 102618 101754 102680 102627 103962 102603 102574
101785 102654 102593 102629 102582 102622 101754 102664 102633 104078
102594 102600 102675 104006 102592 102618 101752 102637 102575 102575
101765 102644 102614 102605 102671 104045 102589 102607 101751 102640
102614 102576 101785 102659 102586 102564 101766 102647 102624 102601
102667 104079 102581 102588 101750 102640 102590 102592 102687 103962
102592 102607 102681 104007 102579 102610 102616 102567 101749 102675
102641 104046 102599 102599 101745 102597 102612 101745 102627 102623
102589 102663 104109 102591 102560 101768 102652 102595 102622 101745
102632 102592 102628 101745 102635 102620 102620 102671 104080 102574
102547 101748 102643 102589 102623 101744 102639 102594 102696 102598
102589 102608 102568 101767 102688 102657 104007 102584 102606 101743
102640 102625 102610 102667 104110 102601 102622 102680 104047 102572
102534 101749 102646 102560 102580 101741 102641 102611 102632 102675
104081 102607 102587 102661 104134 102540 102548 101740 102641 102602
102606 102577 102534 101750 102650 102600 102613 102596 102620 102632
102623 102670 104111 102593 102585 102602 102626 102696 102704 102591
102626 102687 104046 102546 102518 101739 102642 102590 102620 102586
102602 102639 102549 101749 102680 102655 104081 102611 102613 102666
104135 102582 102602 102548 102500 101739 102645 102614 102649 102675
104111 102569 102573 102596 102576 102660 104155 102586 102705 102581
102618 102710 102696 102551 102610 102640 102536 102670 104136 102551
102500 101740 102649 102607 102622 102606 102624 102593 102645 102687
104081 102602 102626 102599 102625 102541 102608 102660 102501 102680
104112 102595 102615 102600 102611 102665 104156 102565 102521 101738
102654 102582 102609 102664 102597 102675 104136 102538 102477 102583
102605 102711 102704 102575 102569 102589 102643 102714 102695 102581
102559 102659 104167 102602 102646 102670 104157 102603 102670 102686
104112 102541 102475 102576 102533 102611 102627 102609 102681 102680
104137 102609 102627 102606 102626 102565 102497 102603 102621 102594
102606 102664 104168 102557 102499 102600 102607 102612 102711 102599
102676 102675 104157 102595 102637 102716 102703 102604 102675 102717
102694 102594 102596 102555 102472 102612 102695 102686 104136 102578
102544 102584 102572 102602 102651 102669 104169 102555 102468 102607
102700 102681 104157 102579 102541 102614 102616 102640 102640 102716
102710 102613 102638 102594 102610 102675 102599 102719 102702 102610
102634 102575 102510 102567 102492 102607 102609 102690 102627 102675
104169 102616 102705 102718 102693 102603 102616 102568 102620 102718
102488 102687 104157 102598 102602 102609 102653 102585 102537 102593
102583 102617 102720 102680 104169 102643 102716 102626 102676 102719
102709 102570 102485 102621 102709 102720 102701 102587 102560 102598
102596 102614 102624 102730 102647 102720 102693 102630 102700 102613
102644 102611 102638 102581 102582 102505 102538 102608 102630 102624
102742 102686 104168 102605 102619 102581 102522 102603 102608 102654
102607 102645 102674 102721 102716 102592 102546 102632 102710 102721
102709 102635 102737 102601 102593 102627 102736 102723 102701 102587
102521 102596 102579 102626 102759 102723 102692 102598 102599 102620
102706 102609 102656 102609 102654 102594 102537 102594 102565 102607
102628 102764 102646 102668 102722 102605 102646 102703 102635 102724
102716 102633 102738 102725 102709 102603 102625 102603 102654 102598
102557 102599 102625 102746 102569 102604 102614 102628 102767 102726
102700 102611 102603 102606 102628 102781 102558 102607 102702 102610
102601 102612 102593 102663 102692 102726 102723 102642 102731 102727
102717 102626 102773 102607 102571 102602 102660 102602 102609 102586
102658 102631 102768 102728 102708 102603 102650 102605 102639 102627
102788 102604 102657 102607 102628 102612 102739 102612 102583 102606
102596 102611 102618 102626 102788 102681 102729 102619 102653 102714
102610 102731 102725 102613 102587 102609 102635 102756 102697 102731
102716 102607 102628 102623 102603 102616 102766 102626 102785 102614
102598 102623 102599 102596 102663 102623 102792 102596 102661 102599
102653 102606 102662 102611 102730 102603 102643 102624 102614 102617
102599 102608 102666 102698 102632 102735 102731 102616 102782 102643
102733 102735 102723 102615 102622 102626 102769 102622 102604 102604
102694 102619 102615 102620 102786 102612 102640 102611 102754 102626
102610 102619 102614 102614 102786 102677 102737 102634 102609 102649
102710 102739 102730 102602 102719 102594 102662 102596 102606 102664
102660 102629 102743 102600 102653 102607 102608 102768 102644 102615
102628 102638 102619 102770 102611 102614 102634 102622 102624 102612
102780 102602 102687 102601 102738 102635 102616 102631 102617 102609
102646 102655 102686 102741 102736 102604 102772 102632 102717 102639
102614 102626 102624 102617 102746 102600 102706 102601 102663 102647
102613 102597 102749 102595 102608 102764 102661 102596 102659 102600
102653 102617 102635 102606 102644 102646 102616 102612 102598 102766
102635 102598 102679 102595 102720 102619 102661 102626 102741 102635
102691 102634 102621 102607 102615 102719 102648 102590 102752 102625
102620 102606 102741 102635 102617 102623 102629 102595 102692 102592
102752 102587 102727 102598 102660 102642 102617 102602 102656 102604
102654 102607 102582 102747 102649 102612 102638 102638 102663 102609
102642 102614 102691 102637 102620 102608 102633 102587 102600 102716
102701 102595 102671 102613 102626 102576 102729 102585 102732 102629
102602 102647 102625 102620 102620 102573 102735 102624 102618 102589
102680 102617 102632 102574 102706 102636 102598 102657 102612 102662
102624 102618 102594 102688 102566 102725 102611 102652 102606 102639
102612 102650 102578 102708 102615 102645 102619 102621 102616 102638
102576 102686 102597 102665 102565 102718 102610 102631 102561 102707
102608 102625 102599 102648 102614 102626 102556 102716 102615 102620
102607 102633 102586 102659 102589 102672 102561 102689 102608 102632
102569 102682 102612 102618 102600 102656 102549 102704 102556 102696
102602 102619 102605 102640 102618 102645 102618 102546 102702 102643
102573 102677 102620 102638 102595 102622 102602 102547 102690 102664
102621 102632 102602 102615 102578 102628 102625 102604 102648 102538
102697 102559 102652 102595 102627 102604 102619 102544 102671 102595
102554 102679 102616 102595 102670 102534 102687 102596 102633 102534
102682 102609 102657 102587 102615 102527 102684 102577 102616 102598
102641 102569 102594 102576 102675 102536 102548 102619 102679 102612
102665 102625 102641 102624 102639 102574 102619 102624 102532 102641
102633 102624 102626 102523 102681 102620 102520 102657 102619 102603
102649 102580 102624 102609 102614 102550 102677 102604 102672 102513
102666 102522 102677 102588 102611 102613 102658 102587 102630 102557
102564 102534 102582 102610 102511 102669 102517 102606 102583 102676
102554 102612 102530 102505 102626 102676 102592 102638 102615 102667
102511 102670 102498 102641 102629 102639 102628 102635 102559 102615
102626 102628 102624 102620 102600 102647 102620 102613 102496 102652
102555 102677 102571 102619 102610 102673 102613 102514 102518 102542
102674 102607 102499 102566 102584 102605 102488 102590 102610 102499
102659 102656 102582 102626 102552 102480 102610 102604 102529 102677
102589 102677 102547 102606 102592 102634 102478 102627 102502 102667
102615 102665 102555 102609 102633 102642 102633 102500 102638 102480
102523 102482 102641 102632 102629 102468 102548 102629 102603 102643
102619 102556 102679 102510 102675 102624 102611 102615 102460 102573
102672 102570 102614 102612 102604 102489 102654 102458 102596 102613
102653 102590 102601 102582 102621 102530 102679 102571 102601 102463
102616 102607 102677 102495 102668 102458 102479 102593 102630 102443
102503 102563 102602 102621 102662 102437 102530 102473 102636 102564
102606 102636 102650 102636 102435 102557 102646 102583 102680 102635
102635 102511 102677 102603 102640 102630 102623 102626 102671 102482
102655 102625 102613 102575 102440 102583 102612 102617 102605 102614
102651 102434 102606 102601 102451 102610 102416 102456 102586 102619
102551 102681 102409 102483 102493 102671 102627 102677 102592 102600
102408 102513 102467 102636 102622 102661 102595 102629 102580 102601
102414 102544 102523 102681 102616 102681 102579 102605 102640 102664
102640 102659 102605 102639 102427 102576 102478 102659 102638 102647
102630 102670 102635 102634 102390 102409 102585 102611 102632 102622
102379 102433 102445 102608 102379 102464 102627 102613 102613 102650
102589 102684 102620 102607 102500 102386 102498 102677 102593 102619
102638 102677 102608 102462 102640 102604 102399 102535 102623 102661
102600 102629 102594 102605 102559 102420 102573 102685 102363 102630
102351 102384 102683 102478 102666 102592 102609 102348 102413 102608
102640 102645 102678 102645 102674 102631 102671 102643 102662 102355
102448 102640 102441 102612 102648 102596 102615 102636 102635 102369
102488 102614 102652 102630 102625 102615 102687 102522 102683 102599
102623 102642 102679 102624 102391 102531 102617 102458 102648 102616
102321 102336 102613 102621 102317 102361 102663 102602 102633 102415
102575 102323 102395 102605 102613 102580 102690 102487 102674 102635
102686 102337 102437 102602 102616 102606 102644 102629 102437 102620
102673 102651 102359 102483 102690 102650 102687 102648 102677 102647
102665 102605 102621 102644 102652 102538 102689 102620 102691 102611
102385 102532 102655 102293 102640 102461 102658 102641 102285 102312
102635 102682 102289 102343 102604 102629 102631 102632 102303 102384
102412 102583 102623 102613 102666 102627 102602 102325 102431 102639
102583 102695 102504 102683 102629 102690 102617 102625 102436 102631
102353 102484 102603 102619 102677 102649 102613 102627 102254 102266
102655 102697 102655 102256 102292 102695 102654 102382 102540 102689
102548 102696 102653 102611 102632 102680 102622 102269 102331 102696
102470 102669 102652 102606 102660 102669 102291 102378 102626 102686
102648 102658 102604 102639 102411 102595 102641 102648 102319 102433
102609 102671 102600 102700 102632 102642 102524 102692 102599 102647
102626 102694 102350 102492 102440 102643 102225 102624 102639 102222
102243 102234 102278 102612 102681 102597 102657 102256 102325 102618
102640 102382 102553 102571 102703 102659 102699 102620 102285 102380
102700 102659 102482 102680 102698 102659 102696 102612 102644 102659
102692 102599 102667 102657 102617 102690 102684 102412 102610 102317
102441 102652 102674 102602 102650 102645 102665 102190 102198 102539
102700 102604 102705 102199 102225 102602 102351 102506 102677 102221
102269 102449 102657 102637 102658 102594 102620 102698 102657 102250
102326 102630 102654 102385 102570 102605 102686 102591 102666 102284
102390 102623 102578 102708 102653 102497 102690 102618 102704 102663
102700 102663 102320 102457 102699 102419 102626 102664 102700 102613
102656 102592 102675 102160 102664 102700 102610 102165 102175 102695
102663 102186 102212 102695 102659 102357 102525 102687 102216 102269
102600 102661 102547 102707 102603 102709 102651 102461 102670 102678
102594 102684 102252 102336 102613 102702 102643 102590 102668 102671
102392 102589 102290 102407 102635 102666 102599 102692 102579 102712
102585 102511 102699 102676 102131 102130 102329 102478 102627 102150
102155 102665 102613 102707 102431 102643 102182 102206 102668 102700
102668 102701 102616 102667 102585 102604 102221 102277 102700 102683
102668 102703 102668 102367 102548 102705 102669 102702 102554 102712
102261 102353 102478 102682 102600 102603 102711 102671 102666 102696
102587 102691 102660 102687 102608 102705 102404 102609 102302 102429
102588 102678 102652 102097 102680 102114 102104 102148 102144 102522
102705 102643 102591 102342 102502 102698 102675 102583 102714 102189
102212 102582 102685 102448 102658 102609 102709 102233 102294 102636
102673 102380 102572 102597 102703 102580 102277 102377 102692 102676
102701 102624 102674 102676 102702 102676 102704 102558 102713 102676
102707 102492 102691 102601 102712 102676 102705 102078 102066 102607
102319 102456 102679 102421 102628 102112 102088 102674 102698 102580
102697 102602 102157 102146 102707 102670 102690 102205 102229 102594
102685 102359 102530 102663 102682 102530 102708 102584 102713 102584
102702 102466 102252 102319 102670 102655 102677 102587 102603 102710
102692 102398 102594 102298 102406 102647 102675 102044 102591 102705
102075 102045 102584 102698 102560 102123 102087 102711 102636 102677
102686 102504 102697 102686 102686 102340 102485 102597 102711 102686
102176 102163 102441 102644 102684 102620 102681 102228 102256 102683
102581 102702 102596 102708 102378 102556 102680 102277 102352 102607
102687 102536 102707 102676 102583 102482 102680 102710 102582 102704
102322 102439 102671 102598 102419 102041 102020 102613 102709 102601
102089 102042 102694 102147 102103 102667 102203 102193 102363 102516
102588 102706 102514 102698 102562 102708 102596 102700 102660 102461
102658 102698 102594 102709 102698 102256 102293 102697 102696 102695
102400 102580 102644 102305 102389 102590 102594 102708 102703 102693
102016 102543 102703 102691 102057 102014 102496 102685 102630 102583