# vtk DataFile Version 2.0
sampleSurface
ASCII
DATASET POLYDATA
POINTS 16001 float
0 0 0.0005 0 0.001 0.0005 0.001 0 0.0005 -0.001 0
0.0005 0.001 0.001 0.0005 -0.001 0.001 0.0005 0.002 0 0.0005
0 0.002 0.0005 -0.002 0 0.0005 0.002 0.001 0.0005 0.001
0.002 0.0005 -0.002 0.001 0.0005 -0.001 0.002 0.0005 0.002 0.002
0.0005 -0.002 0.002 0.0005 0.003 0 0.0005 0 0.003 0.0005
-0.003 0 0.0005 0.003 0.001 0.0005 0.001 0.003 0.0005 -0.003
0.001 0.0005 -0.001 0.003 0.0005 0.003 0.002 0.0005 0.002 0.003
0.0005 -0.003 0.002 0.0005 -0.002 0.003 0.0005 0.004 0 0.0005
0 0.004 0.0005 -0.004 0 0.0005 0.004 0.001 0.0005 0.001
0.004 0.0005 -0.004 0.001 0.0005 -0.001 0.004 0.0005 0.003 0.003
0.0005 -0.003 0.003 0.0005 0.004 0.002 0.0005 0.002 0.004 0.0005
-0.004 0.002 0.0005 -0.002 0.004 0.0005 0.004 0.003 0.0005 0.003
0.004 0.0005 -0.004 0.003 0.0005 -0.003 0.004 0.0005 0.005 0
0.0005 0 0.005 0.0005 -0.005 0 0.0005 0.005 0.001 0.0005
0.001 0.005 0.0005 -0.005 0.001 0.0005 -0.001 0.005 0.0005 0.005
0.002 0.0005 0.002 0.005 0.0005 -0.005 0.002 0.0005 -0.002 0.005
0.0005 0.004 0.004 0.0005 -0.004 0.004 0.0005 0.005 0.003 0.0005
0.003 0.005 0.0005 -0.005 0.003 0.0005 -0.003 0.005 0.0005 0.006
0 0.0005 0 0.006 0.0005 -0.006 0 0.0005 0.006 0.001
0.0005 0.001 0.006 0.0005 -0.006 0.001 0.0005 -0.001 0.006 0.0005
0.006 0.002 0.0005 0.002 0.006 0.0005 -0.006 0.002 0.0005 -0.002
0.006 0.0005 0.005 0.004 0.0005 0.004 0.005 0.0005 -0.005 0.004
0.0005 -0.004 0.005 0.0005 0.006 0.003 0.0005 0.003 0.006 0.0005
-0.006 0.003 0.0005 -0.003 0.006 0.0005 0.007 0 0.0005 0
0.007 0.0005 -0.007 0 0.0005 0.007 0.001 0.0005 0.005 0.005
0.0005 0.001 0.007 0.0005 -0.007 0.001 0.0005 -0.005 0.005 0.0005
-0.001 0.007 0.0005 0.006 0.004 0.0005 0.004 0.006 0.0005 -0.006
0.004 0.0005 -0.004 0.006 0.0005 0.007 0.002 0.0005 0.002 0.007
0.0005 -0.007 0.002 0.0005 -0.002 0.007 0.0005 0.007 0.003 0.0005
0.003 0.007 0.0005 -0.007 0.003 0.0005 -0.003 0.007 0.0005 0.006
0.005 0.0005 0.005 0.006 0.0005 -0.006 0.005 0.0005 -0.005 0.006
0.0005 0.008 0 0.0005 0 0.008 0.0005 -0.008 0 0.0005
0.008 0.001 0.0005 0.001 0.008 0.0005 -0.008 0.001 0.0005 -0.001
0.008 0.0005 0.007 0.004 0.0005 0.004 0.007 0.0005 -0.007 0.004
0.0005 -0.004 0.007 0.0005 0.008 0.002 0.0005 0.002 0.008 0.0005
-0.008 0.002 0.0005 -0.002 0.008 0.0005 0.006 0.006 0.0005 -0.006
0.006 0.0005 0.008 0.003 0.0005 0.003 0.008 0.0005 -0.008 0.003
0.0005 -0.003 0.008 0.0005 0.007 0.005 0.0005 0.005 0.007 0.0005
-0.007 0.005 0.0005 -0.005 0.007 0.0005 0.008 0.004 0.0005 0.004
0.008 0.0005 -0.008 0.004 0.0005 -0.004 0.008 0.0005 0.009 0
0.0005 0 0.009 0.0005 -0.009 0 0.0005 0.009 0.001 0.0005
0.001 0.009 0.0005 -0.009 0.001 0.0005 -0.001 0.009 0.0005 0.009
0.002 0.0005 0.002 0.009 0.0005 -0.009 0.002 0.0005 -0.002 0.009
0.0005 0.007 0.006 0.0005 0.006 0.007 0.0005 -0.007 0.006 0.0005
-0.006 0.007 0.0005 0.008 0.005 0.0005 0.005 0.008 0.0005 -0.008
0.005 0.0005 -0.005 0.008 0.0005 0.009 0.003 0.0005 0.003 0.009
0.0005 -0.009 0.003 0.0005 -0.003 0.009 0.0005 0.009 0.004 0.0005
0.004 0.009 0.0005 -0.009 0.004 0.0005 -0.004 0.009 0.0005 0.007
0.007 0.0005 -0.007 0.007 0.0005 0.008 0.006 0.0005 0.006 0.008
0.0005 -0.008 0.006 0.0005 -0.006 0.008 0.0005 0.01 0 0.0005
0 0.01 0.0005 -0.01 0 0.0005 0.01 0.001 0.0005 0.001
0.01 0.0005 -0.01 0.001 0.0005 -0.001 0.01 0.0005 0.01 0.002
0.0005 0.002 0.01 0.0005 -0.01 0.002 0.0005 -0.002 0.01 0.0005
0.009 0.005 0.0005 0.005 0.009 0.0005 -0.009 0.005 0.0005 -0.005
0.009 0.0005 0.01 0.003 0.0005 0.003 0.01 0.0005 -0.01 0.003
0.0005 -0.003 0.01 0.0005 0.008 0.007 0.0005 0.007 0.008 0.0005
-0.008 0.007 0.0005 -0.007 0.008 0.0005 0.01 0.004 0.0005 0.004
0.01 0.0005 -0.01 0.004 0.0005 -0.004 0.01 0.0005 0.009 0.006
0.0005 0.006 0.009 0.0005 -0.009 0.006 0.0005 -0.006 0.009 0.0005
0.011 0 0.0005 0 0.011 0.0005 -0.011 0 0.0005 0.011
0.001 0.0005 0.001 0.011 0.0005 -0.011 0.001 0.0005 -0.001 0.011
0.0005 0.011 0.002 0.0005 0.002 0.011 0.0005 -0.011 0.002 0.0005
-0.002 0.011 0.0005 0.01 0.005 0.0005 0.005 0.01 0.0005 -0.01
0.005 0.0005 -0.005 0.01 0.0005 0.008 0.008 0.0005 -0.008 0.008
0.0005 0.011 0.003 0.0005 0.009 0.007 0.0005 0.007 0.009 0.0005
0.003 0.011 0.0005 -0.011 0.003 0.0005 -0.009 0.007 0.0005 -0.007
0.009 0.0005 -0.003 0.011 0.0005 0.01 0.006 0.0005 0.006 0.01
0.0005 -0.01 0.006 0.0005 -0.006 0.01 0.0005 0.011 0.004 0.0005
0.004 0.011 0.0005 -0.011 0.004 0.0005 -0.004 0.011 0.0005 0.012
0 0.0005 0 0.012 0.0005 -0.012 0 0.0005 0.012 0.001
0.0005 0.009 0.008 0.0005 0.008 0.009 0.0005 0.001 0.012 0.0005
-0.012 0.001 0.0005 -0.009 0.008 0.0005 -0.008 0.009 0.0005 -0.001
0.012 0.0005 0.011 0.005 0.0005 0.005 0.011 0.0005 -0.011 0.005
0.0005 -0.005 0.011 0.0005 0.012 0.002 0.0005 0.002 0.012 0.0005
-0.012 0.002 0.0005 -0.002 0.012 0.0005 0.01 0.007 0.0005 0.007
0.01 0.0005 -0.01 0.007 0.0005 -0.007 0.01 0.0005 0.012 0.003
0.0005 0.003 0.012 0.0005 -0.012 0.003 0.0005 -0.003 0.012 0.0005
0.011 0.006 0.0005 0.006 0.011 0.0005 -0.011 0.006 0.0005 -0.006
0.011 0.0005 0.012 0.004 0.0005 0.004 0.012 0.0005 -0.012 0.004
0.0005 -0.004 0.012 0.0005 0.009 0.009 0.0005 -0.009 0.009 0.0005
0.01 0.008 0.0005 0.008 0.01 0.0005 -0.01 0.008 0.0005 -0.008
0.01 0.0005 0.013 0 0.0005 0 0.013 0.0005 -0.013 0
0.0005 0.012 0.005 0.0005 0.005 0.012 0.0005 -0.012 0.005 0.0005
-0.005 0.012 0.0005 0.013 0.001 0.0005 0.011 0.007 0.0005 0.007
0.011 0.0005 0.001 0.013 0.0005 -0.013 0.001 0.0005 -0.011 0.007
0.0005 -0.007 0.011 0.0005 -0.001 0.013 0.0005 0.013 0.002 0.0005
0.002 0.013 0.0005 -0.013 0.002 0.0005 -0.002 0.013 0.0005 0.013
0.003 0.0005 0.003 0.013 0.0005 -0.013 0.003 0.0005 -0.003 0.013
0.0005 0.012 0.006 0.0005 0.006 0.012 0.0005 -0.012 0.006 0.0005
-0.006 0.012 0.0005 0.01 0.009 0.0005 0.009 0.01 0.0005 -0.01
0.009 0.0005 -0.009 0.01 0.0005 0.013 0.004 0.0005 0.011 0.008
0.0005 0.008 0.011 0.0005 0.004 0.013 0.0005 -0.013 0.004 0.0005
-0.011 0.008 0.0005 -0.008 0.011 0.0005 -0.004 0.013 0.0005 0.012
0.007 0.0005 0.007 0.012 0.0005 -0.012 0.007 0.0005 -0.007 0.012
0.0005 0.013 0.005 0.0005 0.005 0.013 0.0005 -0.013 0.005 0.0005
-0.005 0.013 0.0005 0.014 0 0.0005 0 0.014 0.0005 -0.014
0 0.0005 0.014 0.001 0.0005 0.001 0.014 0.0005 -0.014 0.001
0.0005 -0.001 0.014 0.0005 0.014 0.002 0.0005 0.01 0.01 0.0005
0.002 0.014 0.0005 -0.014 0.002 0.0005 -0.01 0.01 0.0005 -0.002
0.014 0.0005 0.011 0.009 0.0005 0.009 0.011 0.0005 -0.011 0.009
0.0005 -0.009 0.011 0.0005 0.013 0.006 0.0005 0.006 0.013 0.0005
-0.013 0.006 0.0005 -0.006 0.013 0.0005 0.014 0.003 0.0005 0.003
0.014 0.0005 -0.014 0.003 0.0005 -0.003 0.014 0.0005 0.012 0.008
0.0005 0.008 0.012 0.0005 -0.012 0.008 0.0005 -0.008 0.012 0.0005
0.014 0.004 0.0005 0.004 0.014 0.0005 -0.014 0.004 0.0005 -0.004
0.014 0.0005 0.013 0.007 0.0005 0.007 0.013 0.0005 -0.013 0.007
0.0005 -0.007 0.013 0.0005 0.011 0.01 0.0005 0.01 0.011 0.0005
-0.011 0.01 0.0005 -0.01 0.011 0.0005 0.014 0.005 0.0005 0.005
0.014 0.0005 -0.014 0.005 0.0005 -0.005 0.014 0.0005 0.015 0
0.0005 0.012 0.009 0.0005 0.009 0.012 0.0005 0 0.015 0.0005
-0.015 0 0.0005 -0.012 0.009 0.0005 -0.009 0.012 0.0005 0.015
0.001 0.0005 0.001 0.015 0.0005 -0.015 0.001 0.0005 -0.001 0.015
0.0005 0.015 0.002 0.0005 0.002 0.015 0.0005 -0.015 0.002 0.0005
-0.002 0.015 0.0005 0.014 0.006 0.0005 0.006 0.014 0.0005 -0.014
0.006 0.0005 -0.006 0.014 0.0005 0.013 0.008 0.0005 0.008 0.013
0.0005 -0.013 0.008 0.0005 -0.008 0.013 0.0005 0.015 0.003 0.0005
0.003 0.015 0.0005 -0.015 0.003 0.0005 -0.003 0.015 0.0005 0.015
0.004 0.0005 0.004 0.015 0.0005 -0.015 0.004 0.0005 -0.004 0.015
0.0005 0.011 0.011 0.0005 -0.011 0.011 0.0005 0.012 0.01 0.0005
0.01 0.012 0.0005 -0.012 0.01 0.0005 -0.01 0.012 0.0005 0.014
0.007 0.0005 0.007 0.014 0.0005 -0.014 0.007 0.0005 -0.007 0.014
0.0005 0.015 0.005 0.0005 0.013 0.009 0.0005 0.009 0.013 0.0005
0.005 0.015 0.0005 -0.015 0.005 0.0005 -0.013 0.009 0.0005 -0.009
0.013 0.0005 -0.005 0.015 0.0005 0.016 0 0.0005 0 0.016
0.0005 -0.016 0 0.0005 0.016 0.001 0.0005 0.001 0.016 0.0005
-0.016 0.001 0.0005 -0.001 0.016 0.0005 0.016 0.002 0.0005 0.002
0.016 0.0005 -0.016 0.002 0.0005 -0.002 0.016 0.0005 0.014 0.008
0.0005 0.008 0.014 0.0005 -0.014 0.008 0.0005 -0.008 0.014 0.0005
0.015 0.006 0.0005 0.006 0.015 0.0005 -0.015 0.006 0.0005 -0.006
0.015 0.0005 0.016 0.003 0.0005 0.012 0.011 0.0005 0.011 0.012
0.0005 0.003 0.016 0.0005 -0.016 0.003 0.0005 -0.012 0.011 0.0005
-0.011 0.012 0.0005 -0.003 0.016 0.0005 0.013 0.01 0.0005 0.01
0.013 0.0005 -0.013 0.01 0.0005 -0.01 0.013 0.0005 0.016 0.004
0.0005 0.004 0.016 0.0005 -0.016 0.004 0.0005 -0.004 0.016 0.0005
0.015 0.007 0.0005 0.007 0.015 0.0005 -0.015 0.007 0.0005 -0.007
0.015 0.0005 0.014 0.009 0.0005 0.009 0.014 0.0005 -0.014 0.009
0.0005 -0.009 0.014 0.0005 0.016 0.005 0.0005 0.005 0.016 0.0005
-0.016 0.005 0.0005 -0.005 0.016 0.0005 0.012 0.012 0.0005 -0.012
0.012 0.0005 0.015 0.008 0.0005 0.008 0.015 0.0005 -0.015 0.008
0.0005 -0.008 0.015 0.0005 0.017 0 0.0005 0 0.017 0.0005
-0.017 0 0.0005 0.013 0.011 0.0005 0.011 0.013 0.0005 -0.013
0.011 0.0005 -0.011 0.013 0.0005 0.017 0.001 0.0005 0.001 0.017
0.0005 -0.017 0.001 0.0005 -0.001 0.017 0.0005 0.016 0.006 0.0005
0.006 0.016 0.0005 -0.016 0.006 0.0005 -0.006 0.016 0.0005 0.017
0.002 0.0005 0.002 0.017 0.0005 -0.017 0.002 0.0005 -0.002 0.017
0.0005 0.014 0.01 0.0005 0.01 0.014 0.0005 -0.014 0.01 0.0005
-0.01 0.014 0.0005 0.017 0.003 0.0005 0.003 0.017 0.0005 -0.017
0.003 0.0005 -0.003 0.017 0.0005 0.016 0.007 0.0005 0.007 0.016
0.0005 -0.016 0.007 0.0005 -0.007 0.016 0.0005 0.017 0.004 0.0005
0.004 0.017 0.0005 -0.017 0.004 0.0005 -0.004 0.017 0.0005 0.015
0.009 0.0005 0.009 0.015 0.0005 -0.015 0.009 0.0005 -0.009 0.015
0.0005 0.013 0.012 0.0005 0.012 0.013 0.0005 -0.012 0.013 0.0005
-0.013 0.012 0.0005 0.017 0.005 0.0005 0.005 0.017 0.0005 -0.017
0.005 0.0005 -0.005 0.017 0.0005 0.014 0.011 0.0005 0.011 0.014
0.0005 -0.014 0.011 0.0005 -0.011 0.014 0.0005 0.016 0.008 0.0005
0.008 0.016 0.0005 -0.016 0.008 0.0005 -0.008 0.016 0.0005 0.018
[...]
POINT_DATA 16001
FIELD attributes 17
p 1 16001 float
102164 102166 102167 102159 102169 102160 102167 102173 102152 102168 102176
102153 102167 102175 102159 102162 102178 102146 102164 102180 102147
102173 102170 102179 102151 102165 102157 102182 102143 102159 102184
102142 102178 102174 102156 102166 102181 102144 102170 102171 102175
102146 102161 102152 102179 102142 102155 102180 102141 102178 102164
102178 102139 102171 102172 102150 102170 102170 102138 102164 102151
102182 102144 102155 102185 102142 102180 102164 102179 102138 102173
102171 102166 102141 102154 102171 102166 102135 102168 102154 102175
102147 102157 102164 102184 102145 102146 102177 102174 102158 102135
102160 102165 102184 102140 102170 102172 102165 102135 102169 102169
102153 102138 102152 102159 102183 102149 102161 102196 102147 102181
102176 102151 102132 102162 102168 102190 102142 102176 102159 102143
102174 102159 102137 102172 102172 102139 102133 102157 102179 102134
102133 102166 102165 102166 102148 102166 102201 102147 102179 102171
102201 102143 102177 102165 102146 102137 102149 102178 102118 102131
102162 102176 102133 102138 102175 102182 102093 102134 102169 102152
102141 102176 102129 102132 102153 102170 102140 102145 102171 102171
102144 102166 102176 102179 102141 102172 102183 102079 102130 102164
102181 102083 102137 102173 102168 102139 102134 102144 102187 102016
102133 102169 102184 102104 102129 102155 102175 101960 102138 102176
102015 102138 102170 102180 102069 102136 102181 102189 102011 102129
102165 102161 102136 102186 102179 102119 102009 102132 102129 102147
102177 102188 102057 102126 102156 102192 101947 102129 102173 102179
101840 102129 102180 102175 102140 101937 102128 102130 102138 101986
102197 101953 102125 102167 102184 102043 102127 102049 102185 102093
102124 102148 102188 102056 102124 102066 102195 102012 102122 102158
102193 102028 102121 102097 102154 102131 102185 102121 102124 102139
102183 102003 102116 102197 102015 102119 102115 102183 102184 102085
102039 102116 102120 102149 102024 102185 102112 102115 102056 102186
102137 102114 102074 102196 102038 102116 102131 102175 102133 102125
102133 102188 102177 102133 102099 102112 102119 102140 102098 102178
102107 102114 102143 102188 102075 102110 102116 102185 102073 102103
102185 102103 102103 102069 102184 102162 102145 102103 102126 102073
102164 102162 102120 102133 102182 102093 102109 102132 102183 102152
102103 102087 102153 102154 102114 102156 102181 102118 102102 102104
102164 102140 102108 102144 102166 102177 102121 102127 102178 102109
102102 102120 102188 102125 102192 102074 102090 102114 102171 102188
102096 102090 102076 102186 102135 102091 102084 102169 102139 102101
102134 102138 102177 102108 102156 102184 102150 102092 102096 102180
102142 102093 102111 102180 102121 102123 102201 102114 102190 102150
102168 102101 102146 102178 102116 102200 102143 102094 102108 102172
102125 102193 102082 102079 102192 102102 102079 102086 102188 102132
102081 102094 102122 102189 102101 102158 102170 102159 102094 102137
102185 102152 102195 102145 102083 102114 102213 102105 102107 102208
102108 102191 102181 102138 102086 102119 102159 102172 102095 102148
102100 102199 102102 102174 102177 102149 102088 102130 102172 102238
102132 102179 102096 102160 102199 102014 102070 102119 102201 102108
102214 102197 102066 102071 102097 102174 102169 102089 102140 102192
102106 102074 102105 102090 102195 102102 102193 102188 102133 102077
102110 102164 102170 102090 102150 102184 102141 102080 102123 102103
102183 102096 102176 102143 102179 102238 102262 102182 102164 102082
102133 102098 102184 102102 102215 102144 102169 102090 102162 102202
102016 102065 102200 102097 102179 102047 102066 102097 102096 102195
102181 102186 102084 102142 102195 102074 102069 102096 102190 102109
102072 102091 102127 102166 102091 102178 102163 102262 102177 102182
102085 102151 102188 102141 102075 102089 102130 102181 102283 102238
102106 102178 102097 102217 102187 102174 102078 102087 102169 102173
102086 102162 102123 102165 102092 102197 102186 102194 102079 102087
102203 102090 102062 102201 102087 102063 102092 102197 102159 102177
102094 102065 102092 102283 102262 102134 102184 102300 102239 102192
102158 102161 102121 102068 102087 102091 102178 102186 102193 102080
102087 102131 102167 102092 102218 102190 102151 102071 102089 102190
102179 102073 102087 102183 102183 102081 102089 102152 102154 102087
102197 102178 102282 102164 102187 102300 102261 102190 102194 102074
102087 102153 102178 102315 102239 102201 102096 102059 102200 102099
102060 102100 102198 102116 102061 102098 102182 102171 102081 102090
102195 102137 102063 102095 102190 102157 102154 102194 102075 102087
102087 102219 102195 102161 102065 102092 102184 102194 102300 102281
102186 102164 102082 102092 102193 102173 102191 102189 102075 102089
102316 102260 102197 102181 102066 102089 102166 102172 102330 102239
102199 102193 102066 102088 102201 102112 102057 102201 102186 102075
102090 102200 102118 102057 102108 102185 102164 102081 102094 102199
102129 102057 102103 102200 102200 102067 102088 102199 102299 102198
102147 102058 102099 102191 102202 102316 102279 102196 102167 102058
102095 102179 102190 102331 102259 102209 102186 102076 102092 102205
102203 102067 102088 102193 102186 102058 102091 102186 102180 102096
102348 102192 102201 102058 102089 102214 102207 102215 102205 102067
102089 102317 102298 102208 102187 102075 102094 102202 102119 102053
102202 102126 102053 102114 102194 102207 102333 102278 102202 102138
102052 102107 102193 102210 102058 102088 102201 102190 102194 102153
102051 102098 102102 102349 102200 102170 102049 102097 102217 102209
102068 102091 102196 102203 102194 102217 102057 102096 102088 102367
102196 102188 102048 102094 102226 102317 102207 102225 102335 102298
102193 102197 102207 102206 102047 102100 102091 102351 102217 102210
102067 102093 102203 102222 102058 102088 102205 102126 102049 102205
102197 102200 102133 102049 102098 102119 102368 102204 102187 102221
102143 102047 102046 102089 102111 102203 102157 102044 102105 102209
102227 102058 102089 102210 102212 102095 102387 102200 102174 102042
102099 102217 102233 102337 102317 102184 102233 102046 102088 102200
102218 102100 102354 102198 102193 102040 102096 102189 102204 102100
102370 102212 102228 102057 102091 102192 102188 102242 102212 102038
102046 102087 102093 102197 102211 102098 102388 102207 102133 102042
102207 102140 102041 102122 102183 102231 102036 102090 102219 102337
102205 102203 102220 102146 102039 102100 102112 102356 102193 102248
102046 102088 102203 102207 102227 102157 102036 102094 102105 102404
102185 102207 102101 102372 102198 102172 102033 102100 102176 102247
102035 102087 102181 102210 102099 102389 102192 102192 102030 102096
102197 102249 102044 102090 102173 102259 102034 102086 102193 102223
102097 102405 102184 102215 102028 102093 102202 102211 102100 102356
102177 102207 102101 102374 102177 102169 102207 102240 102026 102100
102090 102390 102209 102127 102035 102209 102141 102035 102130 102196
102246 102092 102419 102173 102267 102033 102086 102209 102147 102032
102117 102208 102157 102029 102107 102178 102217 102099 102405 102170
102262 102023 102087 102205 102172 102026 102102 102196 102100 102179
102174 102199 102269 102032 102101 102088 102374 102199 102192 102023
102097 102188 102238 102096 102419 102156 102201 102101 102391 102159
102278 102022 102085 102187 102215 102021 102094 102162 102208 102100
102405 102186 102265 102091 102430 102176 102240 102018 102091 102211
102147 102156 102286 102021 102085 102211 102149 102211 102177 102228
102156 102098 102419 102210 102173 102185 102164 102101 102101 102148
102188 102101 102391 102165 102263 102016 102087 102206 102177 102166
102152 102196 102287 102018 102101 102087 102405 102186 102255 102094
102430 102198 102193 102151 102279 102014 102085 102163 102213 102100
102418 102187 102212 102178 102279 102090 102441 102163 102103 102148
102172 102104 102101 102177 102184 102240 102232 102097 102429 102148
102287 102013 102085 102214 102165 102215 102165 102144 102179 102101
102404 102214 102167 102214 102172 102167 102152 102195 102251 102101
102417 102209 102181 102185 102265 102094 102441 102160 102288 102010
102087 102203 102176 102221 102193 102099 102428 102156 102264 102142
102153 102106 102103 102194 102207 102136 102158 102109 102102 102175
102280 102090 102450 102189 102247 102097 102440 102143 102172 102101
102416 102154 102273 102184 102224 102218 102173 102167 102196 102101
102427 102218 102171 102217 102171 102175 102240 102216 102176 102185
102266 102093 102451 102166 102276 102215 102130 102183 102106 102189
102223 102099 102439 102127 102136 102111 102104 102133 102147 102115
102103 102210 102192 102169 102251 102159 102168 102102 102426 102179
102271 102206 102202 102191 102246 102096 102450 102169 102259 102185
102194 102101 102438 102201 102214 102220 102110 102111 102176 102111
102107 102220 102175 102187 102119 102120 102258 102117 102105 102219
102176 102192 102225 102179 102260 102217 102197 102221 102179 102098
102448 102144 102138 102122 102103 102217 102183 102188 102178 102163
102233 102102 102437 102216 102189 102194 102238 102187 102254 102215
102196 102198 102190 102100 102448 102087 102112 102097 102092 102117
102108 102190 102238 102122 102107 102124 102106 102212 102204 102193
102241 102222 102159 102128 102173 102129 102104 102201 102212 102222
102172 102221 102174 102206 102194 102238 102212 102220 102176 102195
102155 102101 102446 102220 102179 102205 102218 102221 102199 102222
102182 102069 102064 102118 102113 102197 102232 102092 102074 102124
102109 102209 102180 102217 102186 102129 102092 102131 102107 102207
102220 102214 102191 102175 102117 102134 102103 102199 102220 102208
102197 102223 102173 102223 102172 102209 102217 102216 102196 102223
102208 102144 102173 102041 102118 102222 102058 102043 102173 102124
102114 102094 102056 102131 102110 102220 102174 102204 102203 102217
102200 102208 102218 102166 102210 102217 102174 102137 102077 102136
102106 102215 102176 102218 102186 102103 102200 102210 102179 102216
102207 102198 102179 102024 102016 102124 102119 102052 102019 102130
102115 102220 102129 102220 102198 102225 102167 102225 102221 102183
102167 102095 102035 102135 102109 102226 102166 102226 102166 102144
102059 102209 102182 102225 102164 102214 102149 102224 102186 102217
102190 102223 102163 102195 102086 101992 102124 102222 102012 101986
102163 102130 102120 102226 102186 102209 102050 101992 102159 102134
102113 102213 102179 102224 102165 102215 102111 102098 102012 102224
102183 102229 102169 102226 102164 102150 102038 102227 102163 102228
102162 102211 102163 102208 102130 102228 102159 102232 102220 102176
102172 102228 101975 101956 102155 102130 102125 102198 102066 102006
101951 102134 102118 102227 102153 102053 101963 102231 102173 102208
102141 102228 102152 102103 101986 102215 102165 102204 102091 102229
102154 102227 102171 102157 102015 101934 102130 102232 102157 101965
101914 102134 102123 102204 102112 102228 102156 102229 102210 102149
102155 102005 101914 102230 102153 102231 102188 102045 102149 102220
102165 102233 102056 101931 102160 102232 102145 102231 102141 102114
101958 102205 102127 102198 102074 102229 102162 102230 102140 102215
102154 101919 101885 102134 102128 102158 101993 101961 101869 102229
102141 102225 102161 102009 101874 102200 102099 102209 102138 102229
102143 102180 102028 102232 102068 101897 102151 102233 102150 102233
102147 102218 102155 102233 102142 102225 102146 102232 102124 101933
102137 102204 102118 102192 102061 102231 101867 102132 102132 101915
101834 102220 102148 102213 101964 101822 102145 102152 101975 102227
102130 102020 101835 102225 102130 102218 102148 102198 102090 102081
101869 102173 102016 102209 102130 102222 102131 102236 102145 102236
102143 102236 102125 101915 102140 102216 102145 101861 101811 102236
102134 101918 101780 102216 102134 102234 102128 102189 101975 101777
102054 102205 102111 102232 102123 102151 101964 102035 101803 102212
102214 102136 102136 102230 102120 102091 101849 102228 102118 102201
102086 102213 102138 102171 102011 101804 102211 102124 101867 101753
102222 102119 101930 101730 102130 101906 102240 102140 102215 102136
102240 102139 101992 101742 102240 102135 102213 102122 102241 102129
102194 102052 102210 102107 102053 101783 102241 102123 102155 101963
102239 102117 102215 102130 102210 102126 102109 101843 102237 102113
101812 101745 101882 101700 102207 102084 102181 102013 102213 102129
101949 101691 102233 102111 102214 102120 102143 101908 102013 101720
102224 102111 102215 102130 102241 102137 102241 102077 101778 102136
102203 102054 102242 102132 102215 102115 102215 102172 101969 102105
102242 102126 101756 102242 101832 101691 102120 102216 102127 102127
101848 101906 101658 102211 102120 102241 102114 101974 101667 102237
102196 102019 102109 102213 102086 102167 101919 102214 102125 102038
101716 102218 102119 102231 102107 102100 101788 102223 102107 102216
102128 101783 101705 102212 102060 102193 101863 101648 101980 102219
102107 102243 102139 102244 102137 102216 102112 102244 101936 101633
102133 102244 102127 102153 101864 102242 102003 101664 102121 102218
102127 102214 102119 102239 102115 102210 102029 102220 102092 102067
101730 102195 101936 102234 102111 102220 102122 102215 102125 101738
102229 101821 101664 102108 102131 101810 101900 101623 102220 102070
102223 102109 102213 101970 101630 101996 102218 102130 102222 102114
102187 101888 102036 101681 102246 102143 102246 102141 102218 102114
102246 102137 102246 102132 102219 102131 102244 102126 102103 101759
102221 102043 102216 102122 102225 102102 102241 102219 101783 101702
101959 102120 101865 101641 102236 102116 101939 101620 102221 102167
101841 102129 102218 102130 102231 102006 101649 102114 102226 102016
102226 102084 102225 102115 102219 102136 102071 101715 102213 101917
102223 102123 102220 102121 102249 102152 102249 101753 102151 101834
101681 102138 101797 102248 102147 101912 101638 102247 102220 102139
102141 102226 102060 102232 101984 102244 102135 102226 101979 101640
102115 102219 102129 102240 102130 102196 101877 102042 101686 102221
102139 102234 102126 102219 102138 102229 102036 102226 102125 102106
101759 102228 102100 102227 101949 101811 101735 102220 102145 101887
101678 102221 102127 102223 102137 101955 101656 102168 101840 102222
102133 102253 102164 102253 102016 101678 102162 102228 102079 102252
102158 102232 102011 102220 102150 102251 102153 102225 102131 102212
101915 102249 102147 102222 102078 101734 102141 102245 102142 102221
102152 101796 102241 102139 102140 101808 101869 101732 102222 102150
102229 102058 101936 101694 102231 101981 102227 102118 102237 102138
101995 101692 102188 101883 102223 102151 102221 102157 102232 102141
102051 101726 102230 102037 102228 102099 102230 102147 102257 102176
102257 102175 102221 102163 102113 101787 102220 101951 102256 102171
102225 102147 102255 102165 101858 101794 102229 102155 102254 102160
101923 101745 102163 101858 101979 101725 102252 102156 102223 102166
102227 102078 102250 102153 102228 102030 101737 102013 102227 102163
102227 102137 102249 102200 101925 102153 102085 101779 102224 102166
102225 102170 102244 102156 102227 102143 101840 102061 101855 102227
101914 101803 102120 102223 101986 102238 102162 101969 101771 102225
102175 102260 102188 102260 102186 102226 102164 102259 102182 102017
101765 102258 102177 101903 102177 102235 102168 102257 102172 102064
101787 102226 102178 102255 102168 102226 102099 102226 102042 102231
102175 102228 102155 102253 102120 101832 102166 102209 101962 102250
101913 101862 102167 102228 101965 101823 102180 102229 102182 102159
101888 102010 101804 102246 102170 102225 102083 102223 102017 102228
102139 102051 101809 102242 102175 102229 102186 102230 102192 101943
102178 102261 102099 101838 102197 102261 102196 102260 102192 102259
102187 102239 102181 102259 102183 102225 102066 102227 102121 102231
102144 101882 102189 101919 102259 102214 101995 102179 101965 101878
102231 102171 102008 101850 102236 102186 102257 102178 102046 101842
102175 101930 102253 102233 102190 102178 102233 102087 101855 102192
102227 102103 102223 102044 102230 102156 102249 102181 102205 101978
102130 101885 102234 102235 102188 102195 102245 102185 101970 101931
102261 102202 102261 102011 101900 102202 102261 102164 101924 102199
102227 102085 102261 102243 102190 102195 102230 102047 101882 102139
102220 102024 102260 102235 102197 102191 102082 101882 102236 102182
102258 102188 102239 102195 102196 101966 102255 102187 102121 101899
102238 102197 102231 102121 102252 102187 102226 102066 102237 102200
102236 102169 102158 101926 102215 102009 101981 102251 102189 102017
101948 102052 101926 102240 102194 102237 102202 102084 101916 102249
102193 102188 101960 102232 102103 102262 102205 102236 102118 101921
102153 102262 102224 102049 102205 102263 102203 102246 102198 102262
102200 102239 102201 102261 102240 102188 102197 102210 101998 102154
101937 102259 102194 102243 102202 102257 102193 102026 101995 102232
102086 102238 102136 102060 101969 102241 102183 101961 102200 102091
101953 102220 102036 102254 102193 102240 102241 102176 102206 102121
101949 102254 102196 102204 101993 102243 102196 102241 102207 102154
101955 102252 102239 102120 102199 102231 102072 102243 102163 102266
102206 102266 102185 101970 102206 102216 102027 102266 102206 102250
102204 102242 102204 102038 102265 102204 102244 102068 102011 102189
102263 102098 101991 102201 102261 102202 101994 102199 102128 101980
102247 102208 102240 102105 102245 102148 102258 102226 102060 102198
102243 102200 102158 101979 102245 102179 102255 102244 102211 102198
102215 102022 102188 101985 102255 102201 102243 102194 102247 102133
102244 102239 102092 102210 102077 102051 102205 102001 102255 102106
102029 102204 102249 102167 102223 102052 102135 102013 102270 102206
102270 102207 102252 102209 102244 102243 102164 102006 102187 102205
102270 102207 102270 102215 102023 102206 102268 102204 102248 102120
102192 102006 102237 102082 102250 102252 102155 102212 102266 102203
102245 102199 102264 102202 102245 102178 102224 102049 102212 102014
102249 102214 102263 102087 102202 102114 102064 102142 102046 102248
102109 102263 102243 102219 102030 102192 102204 102254 102142 102171
102034 102248 102212 102235 102075 102250 102168 102199 102029 102262
102208 102227 102050 102240 102185 102248 102221 102032 102207 102274
102206 102259 102212 102274 102207 102274 102208 102254 102131 102273
102207 102247 102100 102255 102158 102272 102206 102122 102098 102257
102229 102041 102214 102234 102072 102149 102078 102270 102204 102248
102199 102242 102178 102064 102177 102270 102203 102206 102055 102255
102215 102234 102056 102271 102203 102254 102122 102257 102148 102244
102191 102246 102230 102053 102094 102272 102205 102254 102248 102169
102212 102237 102073 102243 102057 102271 102209 102130 102240 102185
102155 102109 102253 102208 102259 102183 102093 102138 102269 102212
102277 102255 102114 102277 102276 102246 102066 102254 102160 102276
102212 102082 102246 102092 102276 102267 102214 102238 102077 102277
102251 102200 102242 102178 102246 102079 102278 102255 102077 102265
102214 102260 102130 102278 102257 102257 102109 102151 102247 102192
102261 102080 102279 102247 102249 102162 102140 102093 102170 102262
102189 102122 102212 102217 102109 102279 102245 102101 102259 102088
102243 102186 102261 102123 102259 102142 102260 102208 102278 102258
102107 102278 102252 102161 102278 102267 102098 102278 102278 102279
102257 102098 102277 102278 102098 102257 102243 102179 102201 102281
102170 102262 102134 102282 102194 102151 102264 102118 102275 102256