# vtk DataFile Version 2.0
sampleSurface
ASCII
DATASET POLYDATA
POINTS 16001 float
0 0 0.0005 0 0.001 0.0005 0.001 0 0.0005 -0.001 0
0.0005 0.001 0.001 0.0005 -0.001 0.001 0.0005 0.002 0 0.0005
0 0.002 0.0005 -0.002 0 0.0005 0.002 0.001 0.0005 0.001
0.002 0.0005 -0.002 0.001 0.0005 -0.001 0.002 0.0005 0.002 0.002
0.0005 -0.002 0.002 0.0005 0.003 0 0.0005 0 0.003 0.0005
-0.003 0 0.0005 0.003 0.001 0.0005 0.001 0.003 0.0005 -0.003
0.001 0.0005 -0.001 0.003 0.0005 0.003 0.002 0.0005 0.002 0.003
0.0005 -0.003 0.002 0.0005 -0.002 0.003 0.0005 0.004 0 0.0005
0 0.004 0.0005 -0.004 0 0.0005 0.004 0.001 0.0005 0.001
0.004 0.0005 -0.004 0.001 0.0005 -0.001 0.004 0.0005 0.003 0.003
0.0005 -0.003 0.003 0.0005 0.004 0.002 0.0005 0.002 0.004 0.0005
-0.004 0.002 0.0005 -0.002 0.004 0.0005 0.004 0.003 0.0005 0.003
0.004 0.0005 -0.004 0.003 0.0005 -0.003 0.004 0.0005 0.005 0
0.0005 0 0.005 0.0005 -0.005 0 0.0005 0.005 0.001 0.0005
0.001 0.005 0.0005 -0.005 0.001 0.0005 -0.001 0.005 0.0005 0.005
0.002 0.0005 0.002 0.005 0.0005 -0.005 0.002 0.0005 -0.002 0.005
0.0005 0.004 0.004 0.0005 -0.004 0.004 0.0005 0.005 0.003 0.0005
0.003 0.005 0.0005 -0.005 0.003 0.0005 -0.003 0.005 0.0005 0.006
0 0.0005 0 0.006 0.0005 -0.006 0 0.0005 0.006 0.001
0.0005 0.001 0.006 0.0005 -0.006 0.001 0.0005 -0.001 0.006 0.0005
0.006 0.002 0.0005 0.002 0.006 0.0005 -0.006 0.002 0.0005 -0.002
0.006 0.0005 0.005 0.004 0.0005 0.004 0.005 0.0005 -0.005 0.004
0.0005 -0.004 0.005 0.0005 0.006 0.003 0.0005 0.003 0.006 0.0005
-0.006 0.003 0.0005 -0.003 0.006 0.0005 0.007 0 0.0005 0
0.007 0.0005 -0.007 0 0.0005 0.007 0.001 0.0005 0.005 0.005
0.0005 0.001 0.007 0.0005 -0.007 0.001 0.0005 -0.005 0.005 0.0005
-0.001 0.007 0.0005 0.006 0.004 0.0005 0.004 0.006 0.0005 -0.006
0.004 0.0005 -0.004 0.006 0.0005 0.007 0.002 0.0005 0.002 0.007
0.0005 -0.007 0.002 0.0005 -0.002 0.007 0.0005 0.007 0.003 0.0005
0.003 0.007 0.0005 -0.007 0.003 0.0005 -0.003 0.007 0.0005 0.006
0.005 0.0005 0.005 0.006 0.0005 -0.006 0.005 0.0005 -0.005 0.006
0.0005 0.008 0 0.0005 0 0.008 0.0005 -0.008 0 0.0005
0.008 0.001 0.0005 0.001 0.008 0.0005 -0.008 0.001 0.0005 -0.001
0.008 0.0005 0.007 0.004 0.0005 0.004 0.007 0.0005 -0.007 0.004
0.0005 -0.004 0.007 0.0005 0.008 0.002 0.0005 0.002 0.008 0.0005
-0.008 0.002 0.0005 -0.002 0.008 0.0005 0.006 0.006 0.0005 -0.006
0.006 0.0005 0.008 0.003 0.0005 0.003 0.008 0.0005 -0.008 0.003
0.0005 -0.003 0.008 0.0005 0.007 0.005 0.0005 0.005 0.007 0.0005
-0.007 0.005 0.0005 -0.005 0.007 0.0005 0.008 0.004 0.0005 0.004
0.008 0.0005 -0.008 0.004 0.0005 -0.004 0.008 0.0005 0.009 0
0.0005 0 0.009 0.0005 -0.009 0 0.0005 0.009 0.001 0.0005
0.001 0.009 0.0005 -0.009 0.001 0.0005 -0.001 0.009 0.0005 0.009
0.002 0.0005 0.002 0.009 0.0005 -0.009 0.002 0.0005 -0.002 0.009
0.0005 0.007 0.006 0.0005 0.006 0.007 0.0005 -0.007 0.006 0.0005
-0.006 0.007 0.0005 0.008 0.005 0.0005 0.005 0.008 0.0005 -0.008
0.005 0.0005 -0.005 0.008 0.0005 0.009 0.003 0.0005 0.003 0.009
0.0005 -0.009 0.003 0.0005 -0.003 0.009 0.0005 0.009 0.004 0.0005
0.004 0.009 0.0005 -0.009 0.004 0.0005 -0.004 0.009 0.0005 0.007
0.007 0.0005 -0.007 0.007 0.0005 0.008 0.006 0.0005 0.006 0.008
0.0005 -0.008 0.006 0.0005 -0.006 0.008 0.0005 0.01 0 0.0005
0 0.01 0.0005 -0.01 0 0.0005 0.01 0.001 0.0005 0.001
0.01 0.0005 -0.01 0.001 0.0005 -0.001 0.01 0.0005 0.01 0.002
0.0005 0.002 0.01 0.0005 -0.01 0.002 0.0005 -0.002 0.01 0.0005
0.009 0.005 0.0005 0.005 0.009 0.0005 -0.009 0.005 0.0005 -0.005
0.009 0.0005 0.01 0.003 0.0005 0.003 0.01 0.0005 -0.01 0.003
0.0005 -0.003 0.01 0.0005 0.008 0.007 0.0005 0.007 0.008 0.0005
-0.008 0.007 0.0005 -0.007 0.008 0.0005 0.01 0.004 0.0005 0.004
0.01 0.0005 -0.01 0.004 0.0005 -0.004 0.01 0.0005 0.009 0.006
0.0005 0.006 0.009 0.0005 -0.009 0.006 0.0005 -0.006 0.009 0.0005
0.011 0 0.0005 0 0.011 0.0005 -0.011 0 0.0005 0.011
0.001 0.0005 0.001 0.011 0.0005 -0.011 0.001 0.0005 -0.001 0.011
0.0005 0.011 0.002 0.0005 0.002 0.011 0.0005 -0.011 0.002 0.0005
-0.002 0.011 0.0005 0.01 0.005 0.0005 0.005 0.01 0.0005 -0.01
0.005 0.0005 -0.005 0.01 0.0005 0.008 0.008 0.0005 -0.008 0.008
0.0005 0.011 0.003 0.0005 0.009 0.007 0.0005 0.007 0.009 0.0005
0.003 0.011 0.0005 -0.011 0.003 0.0005 -0.009 0.007 0.0005 -0.007
0.009 0.0005 -0.003 0.011 0.0005 0.01 0.006 0.0005 0.006 0.01
0.0005 -0.01 0.006 0.0005 -0.006 0.01 0.0005 0.011 0.004 0.0005
0.004 0.011 0.0005 -0.011 0.004 0.0005 -0.004 0.011 0.0005 0.012
0 0.0005 0 0.012 0.0005 -0.012 0 0.0005 0.012 0.001
0.0005 0.009 0.008 0.0005 0.008 0.009 0.0005 0.001 0.012 0.0005
-0.012 0.001 0.0005 -0.009 0.008 0.0005 -0.008 0.009 0.0005 -0.001
0.012 0.0005 0.011 0.005 0.0005 0.005 0.011 0.0005 -0.011 0.005
0.0005 -0.005 0.011 0.0005 0.012 0.002 0.0005 0.002 0.012 0.0005
-0.012 0.002 0.0005 -0.002 0.012 0.0005 0.01 0.007 0.0005 0.007
0.01 0.0005 -0.01 0.007 0.0005 -0.007 0.01 0.0005 0.012 0.003
0.0005 0.003 0.012 0.0005 -0.012 0.003 0.0005 -0.003 0.012 0.0005
0.011 0.006 0.0005 0.006 0.011 0.0005 -0.011 0.006 0.0005 -0.006
0.011 0.0005 0.012 0.004 0.0005 0.004 0.012 0.0005 -0.012 0.004
0.0005 -0.004 0.012 0.0005 0.009 0.009 0.0005 -0.009 0.009 0.0005
0.01 0.008 0.0005 0.008 0.01 0.0005 -0.01 0.008 0.0005 -0.008
0.01 0.0005 0.013 0 0.0005 0 0.013 0.0005 -0.013 0
0.0005 0.012 0.005 0.0005 0.005 0.012 0.0005 -0.012 0.005 0.0005
-0.005 0.012 0.0005 0.013 0.001 0.0005 0.011 0.007 0.0005 0.007
0.011 0.0005 0.001 0.013 0.0005 -0.013 0.001 0.0005 -0.011 0.007
0.0005 -0.007 0.011 0.0005 -0.001 0.013 0.0005 0.013 0.002 0.0005
0.002 0.013 0.0005 -0.013 0.002 0.0005 -0.002 0.013 0.0005 0.013
0.003 0.0005 0.003 0.013 0.0005 -0.013 0.003 0.0005 -0.003 0.013
0.0005 0.012 0.006 0.0005 0.006 0.012 0.0005 -0.012 0.006 0.0005
-0.006 0.012 0.0005 0.01 0.009 0.0005 0.009 0.01 0.0005 -0.01
0.009 0.0005 -0.009 0.01 0.0005 0.013 0.004 0.0005 0.011 0.008
0.0005 0.008 0.011 0.0005 0.004 0.013 0.0005 -0.013 0.004 0.0005
-0.011 0.008 0.0005 -0.008 0.011 0.0005 -0.004 0.013 0.0005 0.012
0.007 0.0005 0.007 0.012 0.0005 -0.012 0.007 0.0005 -0.007 0.012
0.0005 0.013 0.005 0.0005 0.005 0.013 0.0005 -0.013 0.005 0.0005
-0.005 0.013 0.0005 0.014 0 0.0005 0 0.014 0.0005 -0.014
0 0.0005 0.014 0.001 0.0005 0.001 0.014 0.0005 -0.014 0.001
0.0005 -0.001 0.014 0.0005 0.014 0.002 0.0005 0.01 0.01 0.0005
0.002 0.014 0.0005 -0.014 0.002 0.0005 -0.01 0.01 0.0005 -0.002
0.014 0.0005 0.011 0.009 0.0005 0.009 0.011 0.0005 -0.011 0.009
0.0005 -0.009 0.011 0.0005 0.013 0.006 0.0005 0.006 0.013 0.0005
-0.013 0.006 0.0005 -0.006 0.013 0.0005 0.014 0.003 0.0005 0.003
0.014 0.0005 -0.014 0.003 0.0005 -0.003 0.014 0.0005 0.012 0.008
0.0005 0.008 0.012 0.0005 -0.012 0.008 0.0005 -0.008 0.012 0.0005
0.014 0.004 0.0005 0.004 0.014 0.0005 -0.014 0.004 0.0005 -0.004
0.014 0.0005 0.013 0.007 0.0005 0.007 0.013 0.0005 -0.013 0.007
0.0005 -0.007 0.013 0.0005 0.011 0.01 0.0005 0.01 0.011 0.0005
-0.011 0.01 0.0005 -0.01 0.011 0.0005 0.014 0.005 0.0005 0.005
0.014 0.0005 -0.014 0.005 0.0005 -0.005 0.014 0.0005 0.015 0
0.0005 0.012 0.009 0.0005 0.009 0.012 0.0005 0 0.015 0.0005
-0.015 0 0.0005 -0.012 0.009 0.0005 -0.009 0.012 0.0005 0.015
0.001 0.0005 0.001 0.015 0.0005 -0.015 0.001 0.0005 -0.001 0.015
0.0005 0.015 0.002 0.0005 0.002 0.015 0.0005 -0.015 0.002 0.0005
-0.002 0.015 0.0005 0.014 0.006 0.0005 0.006 0.014 0.0005 -0.014
0.006 0.0005 -0.006 0.014 0.0005 0.013 0.008 0.0005 0.008 0.013
0.0005 -0.013 0.008 0.0005 -0.008 0.013 0.0005 0.015 0.003 0.0005
0.003 0.015 0.0005 -0.015 0.003 0.0005 -0.003 0.015 0.0005 0.015
0.004 0.0005 0.004 0.015 0.0005 -0.015 0.004 0.0005 -0.004 0.015
0.0005 0.011 0.011 0.0005 -0.011 0.011 0.0005 0.012 0.01 0.0005
0.01 0.012 0.0005 -0.012 0.01 0.0005 -0.01 0.012 0.0005 0.014
0.007 0.0005 0.007 0.014 0.0005 -0.014 0.007 0.0005 -0.007 0.014
0.0005 0.015 0.005 0.0005 0.013 0.009 0.0005 0.009 0.013 0.0005
0.005 0.015 0.0005 -0.015 0.005 0.0005 -0.013 0.009 0.0005 -0.009
0.013 0.0005 -0.005 0.015 0.0005 0.016 0 0.0005 0 0.016
0.0005 -0.016 0 0.0005 0.016 0.001 0.0005 0.001 0.016 0.0005
-0.016 0.001 0.0005 -0.001 0.016 0.0005 0.016 0.002 0.0005 0.002
0.016 0.0005 -0.016 0.002 0.0005 -0.002 0.016 0.0005 0.014 0.008
0.0005 0.008 0.014 0.0005 -0.014 0.008 0.0005 -0.008 0.014 0.0005
0.015 0.006 0.0005 0.006 0.015 0.0005 -0.015 0.006 0.0005 -0.006
0.015 0.0005 0.016 0.003 0.0005 0.012 0.011 0.0005 0.011 0.012
0.0005 0.003 0.016 0.0005 -0.016 0.003 0.0005 -0.012 0.011 0.0005
-0.011 0.012 0.0005 -0.003 0.016 0.0005 0.013 0.01 0.0005 0.01
0.013 0.0005 -0.013 0.01 0.0005 -0.01 0.013 0.0005 0.016 0.004
0.0005 0.004 0.016 0.0005 -0.016 0.004 0.0005 -0.004 0.016 0.0005
0.015 0.007 0.0005 0.007 0.015 0.0005 -0.015 0.007 0.0005 -0.007
0.015 0.0005 0.014 0.009 0.0005 0.009 0.014 0.0005 -0.014 0.009
0.0005 -0.009 0.014 0.0005 0.016 0.005 0.0005 0.005 0.016 0.0005
-0.016 0.005 0.0005 -0.005 0.016 0.0005 0.012 0.012 0.0005 -0.012
0.012 0.0005 0.015 0.008 0.0005 0.008 0.015 0.0005 -0.015 0.008
0.0005 -0.008 0.015 0.0005 0.017 0 0.0005 0 0.017 0.0005
-0.017 0 0.0005 0.013 0.011 0.0005 0.011 0.013 0.0005 -0.013
0.011 0.0005 -0.011 0.013 0.0005 0.017 0.001 0.0005 0.001 0.017
0.0005 -0.017 0.001 0.0005 -0.001 0.017 0.0005 0.016 0.006 0.0005
0.006 0.016 0.0005 -0.016 0.006 0.0005 -0.006 0.016 0.0005 0.017
0.002 0.0005 0.002 0.017 0.0005 -0.017 0.002 0.0005 -0.002 0.017
0.0005 0.014 0.01 0.0005 0.01 0.014 0.0005 -0.014 0.01 0.0005
-0.01 0.014 0.0005 0.017 0.003 0.0005 0.003 0.017 0.0005 -0.017
0.003 0.0005 -0.003 0.017 0.0005 0.016 0.007 0.0005 0.007 0.016
0.0005 -0.016 0.007 0.0005 -0.007 0.016 0.0005 0.017 0.004 0.0005
0.004 0.017 0.0005 -0.017 0.004 0.0005 -0.004 0.017 0.0005 0.015
0.009 0.0005 0.009 0.015 0.0005 -0.015 0.009 0.0005 -0.009 0.015
0.0005 0.013 0.012 0.0005 0.012 0.013 0.0005 -0.012 0.013 0.0005
-0.013 0.012 0.0005 0.017 0.005 0.0005 0.005 0.017 0.0005 -0.017
0.005 0.0005 -0.005 0.017 0.0005 0.014 0.011 0.0005 0.011 0.014
0.0005 -0.014 0.011 0.0005 -0.011 0.014 0.0005 0.016 0.008 0.0005
0.008 0.016 0.0005 -0.016 0.008 0.0005 -0.008 0.016 0.0005 0.018
[...]
POINT_DATA 16001
FIELD attributes 17
p 1 16001 float
103271 103273 103261 103292 103263 103293 103262 103282 103320 103265 103274
103321 103300 103276 103326 103273 103292 103355 103276 103287 103355
103308 103286 103290 103358 103330 103291 103310 103392 103293 103308
103392 103320 103296 103359 103300 103309 103393 103336 103305 103309
103391 103359 103309 103332 103431 103309 103334 103430 103335 103312
103334 103429 103340 103309 103385 103310 103324 103424 103354 103323
103361 103466 103321 103369 103465 103354 103318 103364 103462 103347
103304 103314 103415 103373 103309 103343 103455 103348 103329 103379
103495 103324 103296 103400 103494 103398 103368 103297 103318 103443
103357 103314 103400 103490 103350 103300 103364 103483 103342 103284
103290 103425 103377 103329 103386 103514 103321 103415 103513 103370
103288 103328 103471 103342 103307 103414 103510 103350 103272 103403
103290 103363 103504 103336 103275 103286 103454 103357 103282 103312
103495 103330 103326 103350 103525 103317 103402 103525 103354 103301
103403 103523 103340 103261 103260 103435 103382 103272 103267 103481
103342 103285 103323 103520 103329 103279 103273 103514 103323 103240
103416 103257 103242 103466 103365 103325 103277 103532 103317 103316
103532 103320 103301 103342 103532 103321 103270 103222 103506 103333
103286 103266 103531 103319 103226 103211 103450 103400 103276 103215
103529 103315 103249 103204 103497 103355 103330 103124 103540 103322
103141 103540 103308 103308 103189 103540 103317 103260 103171 103527
103328 103182 103436 103289 103211 103176 103165 103541 103486 103389
103317 103228 103166 103523 103349 103270 103138 103543 103314 103335
102877 103551 103328 103157 103149 103020 103551 103474 103426 102835
103238 103117 103545 103327 103312 103095 103550 102809 103187 103148
103517 103383 103286 103150 103551 102748 103197 103130 103547 103348
103254 103148 103555 102704 103126 103465 103138 103128 103509 103419
103333 102918 103567 103210 103110 103562 102651 103325 103152 103122
103013 103566 103546 103382 102853 103305 103090 103564 102807 103272
103147 103565 102749 103169 103112 103568 102602 103113 103109 103500
103458 103231 103121 103105 103127 103570 103541 103417 102702 103131
103100 103571 102552 103185 103082 103579 102651 103313 102909 103585
103304 102988 103584 102848 103282 103098 103053 103582 103493 102790
103104 103078 103534 103455 103164 103074 103588 102601 103246 103081
103583 102738 103111 103077 103569 102510 103207 103068 103587 102693
103130 103062 103594 102552 103081 103065 103527 103491 103168 103043
103596 102647 103273 103099 103053 102843 103604 103564 102470 103266
102902 103604 102805 103245 102967 103602 102758 103161 103036 103606
102600 103099 103040 103595 102509 103211 102998 103603 102716 103178
102995 103607 102678 103048 103525 103074 103036 103559 102429 103134
103025 103614 102551 103148 103075 103019 102980 103615 103593 102469
102641 103225 102773 103621 103219 102816 103621 102761 103204 102884
103621 102731 103108 103008 103618 102505 103147 102979 103624 102598
103177 103040 103011 102906 103622 103557 102382 102697 103038 103001
103589 102427 103149 102900 103626 102666 103133 102983 103632 102549
103075 102983 103618 102463 103130 102894 103633 102635 103007 102329
103108 102977 103637 102500 103180 102650 103633 103008 102978 103587
102381 103176 102699 103634 102737 103131 102900 103640 102595 103166
102759 103636 102720 103028 102959 103616 102421 103145 102786 103639
102688 103101 102914 103647 102547 103120 102796 103643 102662 103074
102953 103639 102454 102983 102976 102330 102279 103102 102805 103648
102633 103000 102936 103615 102378 103068 102917 103653 102495 103146
102533 103640 103144 103033 102926 102617 103642 103640 102468 102412
103101 102822 103653 102594 103136 102634 103646 102397 103117 102668
103651 102344 103037 102902 103658 102447 102964 102282 103060 102840
103660 102546 103091 102703 103655 102311 102969 102934 102237 102332
102997 102897 103639 102373 103067 102728 103658 102288 103023 102850
103667 102493 102997 102882 103660 102405 103061 102746 103663 102276
103120 102521 103643 103118 102568 103645 102443 103112 102953 102938
102581 103650 102384 102242 102289 102958 102895 102206 102334 103092
103013 102849 102621 103656 103674 102339 102444 103042 102762 103669
102267 102966 102861 103661 102369 103062 102659 103660 102309 103028
102683 103664 102288 103016 102780 103679 102260 102989 102838 103680
102402 102933 102253 102938 102901 102211 102298 103015 102691 103669
102276 102938 102855 102180 102335 103093 102464 103643 103091 102508
103645 102415 103084 102543 103650 102371 102998 102792 103690 102252
103063 102581 103655 102334 103019 102961 102829 102695 103677 103682
102268 102367 103028 102612 103659 102309 102928 102900 102223 102266
102908 102795 103698 102243 103032 102924 102855 102707 103690 102261
102184 102305 102985 102632 103664 102290 102943 102823 102151 102336
102960 102641 103672 102279 103055 102436 103642 103005 102723 103704
102253 103053 102473 103643 102396 102864 102795 103701 102232 103047
102504 103646 102361 102972 102644 103683 102272 102909 102237 103029
102541 103651 102332 102924 102857 102194 102277 103000 102572 103656
102310 102930 102818 102154 102307 102877 102736 103716 102244 102999
102651 103698 102265 102954 102593 103664 102295 102908 102791 102218
102116 102923 102604 103674 102285 102975 102912 102870 102667 103715
102256 102205 102249 102829 102745 103720 102231 103006 102408 103636
103004 102437 103637 102379 102921 102815 102159 102281 103001 102465
103640 102353 102935 102610 103688 102278 102989 102909 102783 102497
103645 102202 102330 102117 102972 102526 103652 102314 102907 102685
103728 102245 102965 102884 102747 102617 103705 102217 102271 102076
102934 102549 103662 102302 102877 102215 102907 102818 102165 102253
102899 102900 102779 102567 103675 102183 102294 102116 102873 102702
103733 102230 102958 102631 103722 102261 102950 102388 103628 102948
102891 102748 102408 103629 102199 102368 102074 102949 102895 102580
102431 103632 103691 102286 102348 102946 102458 103639 102330 102911
102650 103735 102247 102880 102714 102212 102037 102940 102484 103649
102318 102874 102823 102170 102218 102916 102594 103707 102279 102890
102777 102157 102116 102916 102507 103663 102309 102892 102757 102179
102069 102887 102674 103738 102228 102884 102913 102612 102529 103678
103721 102267 102302 102884 102726 102190 102035 102897 102373 103615
102896 102384 103616 102358 102870 102550 103693 102295 102824 102171
102900 102863 102775 102399 103621 102125 102343 102115 102893 102635
103731 102250 102904 102891 102696 102422 103631 102205 102330 102004
102884 102763 102153 102064 102910 102441 103645 102320 102879 102572
103706 102287 102890 102745 102166 102027 102899 102462 103662 102313
102895 102662 103733 102227 102895 102597 103716 102273 102889 102716
102178 102002 102880 102485 103679 102308 102817 102776 102085 102115
102852 102760 102120 102059 102867 102881 102754 102510 103692 102138
102302 102019 102852 102351 103605 102852 102365 103607 102359 102900
102687 102197 101983 102898 102625 103721 102253 102858 102377 103613
102344 102864 102395 103625 102331 102884 102735 102148 101995 102868
102540 103701 102292 102876 102407 103640 102322 102776 102042 102898
102806 102760 102655 103722 102082 102226 102056 102878 102423 103659
102316 102891 102709 102164 101982 102841 102754 102105 102012 102890
102575 103705 102278 102869 102442 103675 102310 102874 102745 102117
101987 102892 102684 102191 101970 102851 102468 103688 102304 102815
102367 102897 102613 103706 102256 102817 102370 102827 102881 102726
102380 102129 101977 102836 102767 102759 102390 102040 101999 102793
102753 102068 102009 102835 102502 103694 102294 102846 102394 102892
102839 102746 102650 103704 102084 102225 101980 102882 102707 102152
101971 102852 102400 102841 102544 103696 102279 102855 102737 102094
101972 102856 102414 102888 102684 102187 101967 102749 101999 102752
102746 101963 102030 102839 102865 102724 102435 102111 101969 102850
102592 103695 102256 102780 102393 102785 102394 102778 102743 102049
101977 102802 102398 102815 102400 102825 102811 102739 102467 102060
101968 102817 102398 102880 102712 102144 101968 102878 102642 103692
102225 102826 102819 102735 102398 102073 101967 102839 102511 102732
102736 101965 101994 102847 102405 102734 102736 101937 102016 102887
102687 102185 101971 102876 102733 102100 101970 102757 102734 102028
101965 102847 102565 102844 102422 102748 102418 102776 102736 102038
101966 102757 102419 102782 102422 102834 102449 102799 102423 102877
102724 102140 101973 102863 102620 102791 102721 102420 101965 102821
102747 102059 101971 102716 102723 101940 101987 102716 102724 101922
102000 102788 102419 102836 102490 102737 102731 102009 101965 102871
102671 102813 102423 102868 102750 102095 101976 102826 102540 102759
102749 102023 101972 102817 102436 102721 102702 102707 102452 101945
101965 102732 102451 102853 102697 102708 102712 101926 101979 102760
102452 102827 102458 102814 102594 102779 102802 102761 102452 102053
101978 102704 102719 101915 101986 102770 102451 102836 102712 102739
102491 101996 101972 102770 102450 102815 102738 102819 102642 102801
102454 102735 102758 102017 101981 102685 101952 102677 102687 101935
101965 102823 102531 102680 102700 101921 101971 102809 102464 102807
102681 102702 102668 102723 102486 101916 101977 102759 102748 102711
102484 102738 102482 102808 102832 102576 102480 102761 102478 102689
102743 101990 101981 102756 102476 102797 102505 102761 102775 102707
102476 102656 102660 101948 101960 102814 102618 102651 102674 101932
101965 102710 102743 102772 102480 102647 102698 101922 101966 102822
102535 102776 102488 102644 102721 101920 101972 102778 102652 102724
102719 102689 102509 102698 102508 102858 102568 102751 102501 102725
102670 102727 102504 102625 101962 102749 102622 102640 102499 101949
101967 102619 102665 101935 101965 102750 102496 102746 102674 102737
102518 102817 102672 102716 102599 102748 102496 102613 102692 101926
101963 102712 102499 102756 102630 102704 102540 102694 102683 102706
102759 102625 102505 102584 102599 101968 101975 102580 102626 101954
101971 102629 102703 102758 102563 102677 102519 102682 102740 102514
102517 102579 102656 101939 101963 102703 102512 102722 102505 102590
102675 102719 102643 102731 102500 102650 102681 102757 102527 102751
102585 102737 102499 102584 102681 102553 101986 102732 102535 102580
102501 101976 101984 102735 102542 102678 102534 102614 102651 101958
101972 102723 102604 102710 102505 102614 102671 102542 102639 102703
102559 102727 102513 102668 102516 102551 102654 102671 102514 102684
102508 102691 102617 102622 102650 102699 102499 102748 102709 102574
102523 102711 102501 102532 102492 101997 101999 102579 102653 102483
102569 101980 101986 102721 102489 102487 102598 102728 102535 102664
102623 102751 102489 102504 102620 102695 102586 102582 102643 102726
102492 102711 102546 102539 102630 102482 102012 102686 102498 102447
102522 102002 102002 102637 102621 102664 102491 102667 102672 102593
102488 102430 102555 102676 102482 102685 102574 102629 102473 102698
102556 102685 102444 102582 102506 102693 102466 102701 102462 102481
102600 102653 102595 102612 102615 102680 102515 102709 102461 102682
102563 102429 102474 102018 102015 102538 102608 102391 102511 102696
102463 102687 102524 102383 102541 102651 102592 102661 102565 102674
102469 102587 102603 102661 102414 102565 102449 102663 102447 102669
102441 102682 102530 102674 102433 102665 102476 102671 102465 102582
102428 102640 102564 102642 102585 102665 102425 102425 102021 102374
102466 102661 102484 102672 102342 102499 102533 102546 102586 102664
102425 102349 102527 102657 102427 102663 102491 102622 102558 102397
102550 102589 102574 102656 102532 102649 102432 102658 102389 102661
102388 102667 102481 102563 102385 102663 102496 102375 102422 102670
102380 102326 102457 102651 102439 102667 102378 102596 102305 102487
102550 102639 102527 102661 102379 102536 102560 102329 102515 102650
102658 102497 102446 102654 102381 102408 102536 102648 102385 102618
102518 102652 102452 102559 102539 102378 102648 102494 102330 102417
102648 102390 102287 102448 102488 102542 102651 102327 102651 102457
102653 102327 102284 102479 102659 102326 102652 102395 102661 102325
102586 102508 102632 102486 102337 102506 102661 102328 102519 102527
102662 102333 102646 102458 102653 102402 102422 102520 102655 102338
102338 102377 102292 102409 102608 102475 102555 102497 102653 102408
102265 102442 102651 102342 102636 102454 102472 102513 102283 102474
102653 102346 102651 102414 102636 102271 102639 102353 102496 102272
102570 102463 102645 102273 102658 102351 102619 102515 102487 102446
102649 102276 102342 102650 102303 102373 102282 102642 102416 102424
102497 102268 102406 102663 102356 102644 102290 102258 102442 102641
102540 102451 102296 102595 102434 102464 102476 102662 102361 102296
102470 102628 102415 102649 102300 102368 102479 102659 102302 102657
102367 102310 102340 102562 102421 102514 102278 102372 102441 102611
102408 102616 102235 102619 102236 102663 102304 102625 102256 102409
102239 102630 102244 102418 102464 102631 102264 102441 102251 102646
102372 102667 102307 102629 102259 102528 102409 102590 102398 102319
102458 102476 102433 102638 102264 102629 102374 102666 102312 102310
102653 102285 102341 102265 102373 102450 102263 102377 102569 102386
102660 102263 102500 102255 102412 102399 102657 102318 102609 102371
102438 102425 102284 102433 102593 102222 102596 102223 102667 102261
102601 102227 102607 102232 102649 102324 102613 102237 102334 102433
102547 102374 102673 102260 102586 102364 102625 102472 102288 102314
102393 102241 102268 102348 102640 102242 102257 102383 102632 102399
102414 102328 102672 102262 102653 102267 102408 102238 102521 102365
102563 102355 102664 102231 102660 102267 102302 102414 102441 102388
102606 102330 102672 102224 102577 102232 102580 102292 102233 102271
102322 102360 102402 102585 102235 102258 102356 102594 102644 102273
102238 102542 102345 102505 102361 102605 102239 102577 102261 102382
102328 102677 102218 102614 102237 102401 102383 102282 102394 102630
102279 102625 102232 102670 102216 102516 102339 102638 102223 102327
102390 102549 102323 102483 102359 102276 102302 102655 102218 102260
102331 102654 102210 102607 102284 102257 102356 102364 102376 102667
102197 102576 102254 102578 102270 102371 102254 102516 102318 102583
102254 102482 102336 102643 102224 102589 102253 102578 102287 102433
102357 102596 102250 102671 102304 102373 102187 102598 102243 102628
102230 102287 102608 102232 102337 102366 102267 102311 102662 102181
102480 102315 102256 102333 102451 102335 102548 102289 102617 102217
102260 102347 102382 102353 102609 102238 102655 102179 102636 102200
102289 102353 102434 102314 102519 102290 102658 102183 102588 102277
102588 102276 102648 102182 102318 102352 102418 102335 102589 102274
102584 102246 102590 102270 102278 102296 102665 102168 102594 102263
102262 102313 102355 102345 102256 102324 102593 102251 102629 102189
102493 102292 102598 102236 102395 102274 102332 102315 102668 102158
102554 102254 102608 102387 102333 102218 102303 102335 102613 102198
102662 102153 102620 102199 102464 102337 102333 102294 102287 102523
102274 102298 102262 102387 102316 102629 102179 102261 102305 102653
102154 102601 102289 102600 102288 102591 102210 102597 102284 102262
102311 102595 102366 102326 102278 102628 102162 102597 102268 102286
102316 102640 102159 102589 102255 102493 102270 102440 102297 102638
102148 102563 102224 102590 102319 102318 102238 102390 102314 102605
102283 102288 102219 102625 102272 102290 102170 102649 102141 102348
102315 102263 102292 102618 102200 102466 102277 102429 102298 102529
102239 102271 102296 102619 102181 102652 102140 102606 102379 102307
102185 102606 102301 102300 102284 102604 102283 102598 102278 102591
102271 102610 102163 102581 102261 102443 102283 102495 102254 102648
102331 102299 102145 102282 102579 102419 102297 102248 102280 102279
102579 102204 102273 102277 102624 102149 102587 102233 102269 102278
102364 102295 102594 102637 102156 102217 102642 102285 102280 102141
102463 102266 102425 102286 102546 102225 102601 102200 102403 102291
102312 102280 102651 102619 102173 102139 102612 102184 102279 102273
102599 102262 102596 102279 102267 102260 102590 102347 102278 102255
102445 102275 102583 102617 102169 102248 102512 102275 102264 102245
102412 102286 102575 102655 102144 102239 102278 102262 102592 102196
102592 102229 102623 102157 102387 102278 102585 102217 102295 102260
102648 102155 102482 102262 102559 102206 102433 102282 102636 102149
102555 102221 102326 102258 102401 102282 102270 102565 102195 102277
102260 102279 102254 102631 102172 102649 102147 102281 102248 102588
102185 102363 102260 102459 102275 102585 102225 102519 102287 102241
102244 102583 102420 102285 102224 102580 102220 102612 102175 102578
102214 102655 102151 102579 102605 102195 102207 102390 102271 102308
102236 102586 102200 102620 102167 102586 102194 102268 102258 102439
102285 102492 102264 102275 102248 102651 102339 102238 102161 102281
102237 102411 102284 102577 102189 102636 102574 102222 102162 102287
102225 102580 102186 102371 102254 102637 102177 102646 102160 102298
102214 102595 102458 102279 102183 102421 102292 102544 102246 102569
102184 102570 102321 102214 102183 102400 102278 102571 102181 102616
102180 102649 102163 102257 102576 102177 102616 102265 102246 102198
102585 102273 102231 102173 102592 102351 102233 102170 102283 102213
102631 102177 102426 102291 102508 102266 102621 102409 102296 102169
102646 102170 102296 102195 102594 102222 102645 102636 102175 102170
102376 102265 102311 102190 102626 102174 102636 102182 102466 102281
102642 102409 102302 102173 102256 102246 102337 102208 102614 102262
102229 102179 102565 102244 102400 102296 102271 102205 102562 102153
102564 102152 102618 102183 102644 102618 102288 102180 102199 102174
102571 102152 102583 102359 102247 102150 102598 102148 102437 102294
102305 102168 102398 102310 102627 102528 102262 102185 102615 102148
102641 102178 102633 102150 102600 102218 102390 102290 102326 102182
102632 102186 102641 102247 102156 102253 102229 102257 102200 102419
102305 102632 102633 102350 102224 102186 102165 102490 102275 102271
102168 102635 102186 102393 102316 102567 102235 102292 102148 102620
102175 102377 102277 102620 102197 102639 102316 102158 102185 102562
102141 102612 102184 102564 102141 102572 102141 102456 102286 102583
102141 102406 102316 102533 102248 102595 102140 102246 102230 102616
102338 102199 102190 102401 102317 102249 102199 102605 102140 102636
102186 102605 102254 102160 102208 102611 102144 102271 102132 102624
102194 102366 102259 102611 102151 102431 102297 102507 102257 102628
102189 102392 102298 102135 102326 102606 102162 102627 102585 102218
102195 102396 102312 102327 102174 102602 102174 102231 102619 102193
102243 102199 102631 102194 102476 102244 102155 102266 102595 102184
102571 102416 102308 102572 102577 102355 102237 102560 102225 102583
102251 102120 102386 102334 102587 102603 102192 102274 102115 102590
102632 102193 102606 102195 102382 102300 102593 102306 102150 102619
102197 102451 102275 102595 102531 102405 102320 102231 102628 102192
102339 102214 102596 102590 102386 102229 102199 102335 102198 102626
102238 102154 102198 102239 102112 102595 102251 102099 102372 102284
102622 102189 102434 102286 102501 102237 102632 102198 102591 102403
102331 102584 102568 102200 102584 102278 102125 102584 102582 102579
102382 102331 102605 102314 102188 102635 102617 102185 102196 102577
102197 102473 102245 102577 102223 102153 102424 102297 102620 102538