# vtk DataFile Version 2.0
sampleSurface
ASCII
DATASET POLYDATA
POINTS 16001 float
0 0 0.0005 0 0.001 0.0005 0.001 0 0.0005 -0.001 0
0.0005 0.001 0.001 0.0005 -0.001 0.001 0.0005 0.002 0 0.0005
0 0.002 0.0005 -0.002 0 0.0005 0.002 0.001 0.0005 0.001
0.002 0.0005 -0.002 0.001 0.0005 -0.001 0.002 0.0005 0.002 0.002
0.0005 -0.002 0.002 0.0005 0.003 0 0.0005 0 0.003 0.0005
-0.003 0 0.0005 0.003 0.001 0.0005 0.001 0.003 0.0005 -0.003
0.001 0.0005 -0.001 0.003 0.0005 0.003 0.002 0.0005 0.002 0.003
0.0005 -0.003 0.002 0.0005 -0.002 0.003 0.0005 0.004 0 0.0005
0 0.004 0.0005 -0.004 0 0.0005 0.004 0.001 0.0005 0.001
0.004 0.0005 -0.004 0.001 0.0005 -0.001 0.004 0.0005 0.003 0.003
0.0005 -0.003 0.003 0.0005 0.004 0.002 0.0005 0.002 0.004 0.0005
-0.004 0.002 0.0005 -0.002 0.004 0.0005 0.004 0.003 0.0005 0.003
0.004 0.0005 -0.004 0.003 0.0005 -0.003 0.004 0.0005 0.005 0
0.0005 0 0.005 0.0005 -0.005 0 0.0005 0.005 0.001 0.0005
0.001 0.005 0.0005 -0.005 0.001 0.0005 -0.001 0.005 0.0005 0.005
0.002 0.0005 0.002 0.005 0.0005 -0.005 0.002 0.0005 -0.002 0.005
0.0005 0.004 0.004 0.0005 -0.004 0.004 0.0005 0.005 0.003 0.0005
0.003 0.005 0.0005 -0.005 0.003 0.0005 -0.003 0.005 0.0005 0.006
0 0.0005 0 0.006 0.0005 -0.006 0 0.0005 0.006 0.001
0.0005 0.001 0.006 0.0005 -0.006 0.001 0.0005 -0.001 0.006 0.0005
0.006 0.002 0.0005 0.002 0.006 0.0005 -0.006 0.002 0.0005 -0.002
0.006 0.0005 0.005 0.004 0.0005 0.004 0.005 0.0005 -0.005 0.004
0.0005 -0.004 0.005 0.0005 0.006 0.003 0.0005 0.003 0.006 0.0005
-0.006 0.003 0.0005 -0.003 0.006 0.0005 0.007 0 0.0005 0
0.007 0.0005 -0.007 0 0.0005 0.007 0.001 0.0005 0.005 0.005
0.0005 0.001 0.007 0.0005 -0.007 0.001 0.0005 -0.005 0.005 0.0005
-0.001 0.007 0.0005 0.006 0.004 0.0005 0.004 0.006 0.0005 -0.006
0.004 0.0005 -0.004 0.006 0.0005 0.007 0.002 0.0005 0.002 0.007
0.0005 -0.007 0.002 0.0005 -0.002 0.007 0.0005 0.007 0.003 0.0005
0.003 0.007 0.0005 -0.007 0.003 0.0005 -0.003 0.007 0.0005 0.006
0.005 0.0005 0.005 0.006 0.0005 -0.006 0.005 0.0005 -0.005 0.006
0.0005 0.008 0 0.0005 0 0.008 0.0005 -0.008 0 0.0005
0.008 0.001 0.0005 0.001 0.008 0.0005 -0.008 0.001 0.0005 -0.001
0.008 0.0005 0.007 0.004 0.0005 0.004 0.007 0.0005 -0.007 0.004
0.0005 -0.004 0.007 0.0005 0.008 0.002 0.0005 0.002 0.008 0.0005
-0.008 0.002 0.0005 -0.002 0.008 0.0005 0.006 0.006 0.0005 -0.006
0.006 0.0005 0.008 0.003 0.0005 0.003 0.008 0.0005 -0.008 0.003
0.0005 -0.003 0.008 0.0005 0.007 0.005 0.0005 0.005 0.007 0.0005
-0.007 0.005 0.0005 -0.005 0.007 0.0005 0.008 0.004 0.0005 0.004
0.008 0.0005 -0.008 0.004 0.0005 -0.004 0.008 0.0005 0.009 0
0.0005 0 0.009 0.0005 -0.009 0 0.0005 0.009 0.001 0.0005
0.001 0.009 0.0005 -0.009 0.001 0.0005 -0.001 0.009 0.0005 0.009
0.002 0.0005 0.002 0.009 0.0005 -0.009 0.002 0.0005 -0.002 0.009
0.0005 0.007 0.006 0.0005 0.006 0.007 0.0005 -0.007 0.006 0.0005
-0.006 0.007 0.0005 0.008 0.005 0.0005 0.005 0.008 0.0005 -0.008
0.005 0.0005 -0.005 0.008 0.0005 0.009 0.003 0.0005 0.003 0.009
0.0005 -0.009 0.003 0.0005 -0.003 0.009 0.0005 0.009 0.004 0.0005
0.004 0.009 0.0005 -0.009 0.004 0.0005 -0.004 0.009 0.0005 0.007
0.007 0.0005 -0.007 0.007 0.0005 0.008 0.006 0.0005 0.006 0.008
0.0005 -0.008 0.006 0.0005 -0.006 0.008 0.0005 0.01 0 0.0005
0 0.01 0.0005 -0.01 0 0.0005 0.01 0.001 0.0005 0.001
0.01 0.0005 -0.01 0.001 0.0005 -0.001 0.01 0.0005 0.01 0.002
0.0005 0.002 0.01 0.0005 -0.01 0.002 0.0005 -0.002 0.01 0.0005
0.009 0.005 0.0005 0.005 0.009 0.0005 -0.009 0.005 0.0005 -0.005
0.009 0.0005 0.01 0.003 0.0005 0.003 0.01 0.0005 -0.01 0.003
0.0005 -0.003 0.01 0.0005 0.008 0.007 0.0005 0.007 0.008 0.0005
-0.008 0.007 0.0005 -0.007 0.008 0.0005 0.01 0.004 0.0005 0.004
0.01 0.0005 -0.01 0.004 0.0005 -0.004 0.01 0.0005 0.009 0.006
0.0005 0.006 0.009 0.0005 -0.009 0.006 0.0005 -0.006 0.009 0.0005
0.011 0 0.0005 0 0.011 0.0005 -0.011 0 0.0005 0.011
0.001 0.0005 0.001 0.011 0.0005 -0.011 0.001 0.0005 -0.001 0.011
0.0005 0.011 0.002 0.0005 0.002 0.011 0.0005 -0.011 0.002 0.0005
-0.002 0.011 0.0005 0.01 0.005 0.0005 0.005 0.01 0.0005 -0.01
0.005 0.0005 -0.005 0.01 0.0005 0.008 0.008 0.0005 -0.008 0.008
0.0005 0.011 0.003 0.0005 0.009 0.007 0.0005 0.007 0.009 0.0005
0.003 0.011 0.0005 -0.011 0.003 0.0005 -0.009 0.007 0.0005 -0.007
0.009 0.0005 -0.003 0.011 0.0005 0.01 0.006 0.0005 0.006 0.01
0.0005 -0.01 0.006 0.0005 -0.006 0.01 0.0005 0.011 0.004 0.0005
0.004 0.011 0.0005 -0.011 0.004 0.0005 -0.004 0.011 0.0005 0.012
0 0.0005 0 0.012 0.0005 -0.012 0 0.0005 0.012 0.001
0.0005 0.009 0.008 0.0005 0.008 0.009 0.0005 0.001 0.012 0.0005
-0.012 0.001 0.0005 -0.009 0.008 0.0005 -0.008 0.009 0.0005 -0.001
0.012 0.0005 0.011 0.005 0.0005 0.005 0.011 0.0005 -0.011 0.005
0.0005 -0.005 0.011 0.0005 0.012 0.002 0.0005 0.002 0.012 0.0005
-0.012 0.002 0.0005 -0.002 0.012 0.0005 0.01 0.007 0.0005 0.007
0.01 0.0005 -0.01 0.007 0.0005 -0.007 0.01 0.0005 0.012 0.003
0.0005 0.003 0.012 0.0005 -0.012 0.003 0.0005 -0.003 0.012 0.0005
0.011 0.006 0.0005 0.006 0.011 0.0005 -0.011 0.006 0.0005 -0.006
0.011 0.0005 0.012 0.004 0.0005 0.004 0.012 0.0005 -0.012 0.004
0.0005 -0.004 0.012 0.0005 0.009 0.009 0.0005 -0.009 0.009 0.0005
0.01 0.008 0.0005 0.008 0.01 0.0005 -0.01 0.008 0.0005 -0.008
0.01 0.0005 0.013 0 0.0005 0 0.013 0.0005 -0.013 0
0.0005 0.012 0.005 0.0005 0.005 0.012 0.0005 -0.012 0.005 0.0005
-0.005 0.012 0.0005 0.013 0.001 0.0005 0.011 0.007 0.0005 0.007
0.011 0.0005 0.001 0.013 0.0005 -0.013 0.001 0.0005 -0.011 0.007
0.0005 -0.007 0.011 0.0005 -0.001 0.013 0.0005 0.013 0.002 0.0005
0.002 0.013 0.0005 -0.013 0.002 0.0005 -0.002 0.013 0.0005 0.013
0.003 0.0005 0.003 0.013 0.0005 -0.013 0.003 0.0005 -0.003 0.013
0.0005 0.012 0.006 0.0005 0.006 0.012 0.0005 -0.012 0.006 0.0005
-0.006 0.012 0.0005 0.01 0.009 0.0005 0.009 0.01 0.0005 -0.01
0.009 0.0005 -0.009 0.01 0.0005 0.013 0.004 0.0005 0.011 0.008
0.0005 0.008 0.011 0.0005 0.004 0.013 0.0005 -0.013 0.004 0.0005
-0.011 0.008 0.0005 -0.008 0.011 0.0005 -0.004 0.013 0.0005 0.012
0.007 0.0005 0.007 0.012 0.0005 -0.012 0.007 0.0005 -0.007 0.012
0.0005 0.013 0.005 0.0005 0.005 0.013 0.0005 -0.013 0.005 0.0005
-0.005 0.013 0.0005 0.014 0 0.0005 0 0.014 0.0005 -0.014
0 0.0005 0.014 0.001 0.0005 0.001 0.014 0.0005 -0.014 0.001
0.0005 -0.001 0.014 0.0005 0.014 0.002 0.0005 0.01 0.01 0.0005
0.002 0.014 0.0005 -0.014 0.002 0.0005 -0.01 0.01 0.0005 -0.002
0.014 0.0005 0.011 0.009 0.0005 0.009 0.011 0.0005 -0.011 0.009
0.0005 -0.009 0.011 0.0005 0.013 0.006 0.0005 0.006 0.013 0.0005
-0.013 0.006 0.0005 -0.006 0.013 0.0005 0.014 0.003 0.0005 0.003
0.014 0.0005 -0.014 0.003 0.0005 -0.003 0.014 0.0005 0.012 0.008
0.0005 0.008 0.012 0.0005 -0.012 0.008 0.0005 -0.008 0.012 0.0005
0.014 0.004 0.0005 0.004 0.014 0.0005 -0.014 0.004 0.0005 -0.004
0.014 0.0005 0.013 0.007 0.0005 0.007 0.013 0.0005 -0.013 0.007
0.0005 -0.007 0.013 0.0005 0.011 0.01 0.0005 0.01 0.011 0.0005
-0.011 0.01 0.0005 -0.01 0.011 0.0005 0.014 0.005 0.0005 0.005
0.014 0.0005 -0.014 0.005 0.0005 -0.005 0.014 0.0005 0.015 0
0.0005 0.012 0.009 0.0005 0.009 0.012 0.0005 0 0.015 0.0005
-0.015 0 0.0005 -0.012 0.009 0.0005 -0.009 0.012 0.0005 0.015
0.001 0.0005 0.001 0.015 0.0005 -0.015 0.001 0.0005 -0.001 0.015
0.0005 0.015 0.002 0.0005 0.002 0.015 0.0005 -0.015 0.002 0.0005
-0.002 0.015 0.0005 0.014 0.006 0.0005 0.006 0.014 0.0005 -0.014
0.006 0.0005 -0.006 0.014 0.0005 0.013 0.008 0.0005 0.008 0.013
0.0005 -0.013 0.008 0.0005 -0.008 0.013 0.0005 0.015 0.003 0.0005
0.003 0.015 0.0005 -0.015 0.003 0.0005 -0.003 0.015 0.0005 0.015
0.004 0.0005 0.004 0.015 0.0005 -0.015 0.004 0.0005 -0.004 0.015
0.0005 0.011 0.011 0.0005 -0.011 0.011 0.0005 0.012 0.01 0.0005
0.01 0.012 0.0005 -0.012 0.01 0.0005 -0.01 0.012 0.0005 0.014
0.007 0.0005 0.007 0.014 0.0005 -0.014 0.007 0.0005 -0.007 0.014
0.0005 0.015 0.005 0.0005 0.013 0.009 0.0005 0.009 0.013 0.0005
0.005 0.015 0.0005 -0.015 0.005 0.0005 -0.013 0.009 0.0005 -0.009
0.013 0.0005 -0.005 0.015 0.0005 0.016 0 0.0005 0 0.016
0.0005 -0.016 0 0.0005 0.016 0.001 0.0005 0.001 0.016 0.0005
-0.016 0.001 0.0005 -0.001 0.016 0.0005 0.016 0.002 0.0005 0.002
0.016 0.0005 -0.016 0.002 0.0005 -0.002 0.016 0.0005 0.014 0.008
0.0005 0.008 0.014 0.0005 -0.014 0.008 0.0005 -0.008 0.014 0.0005
0.015 0.006 0.0005 0.006 0.015 0.0005 -0.015 0.006 0.0005 -0.006
0.015 0.0005 0.016 0.003 0.0005 0.012 0.011 0.0005 0.011 0.012
0.0005 0.003 0.016 0.0005 -0.016 0.003 0.0005 -0.012 0.011 0.0005
-0.011 0.012 0.0005 -0.003 0.016 0.0005 0.013 0.01 0.0005 0.01
0.013 0.0005 -0.013 0.01 0.0005 -0.01 0.013 0.0005 0.016 0.004
0.0005 0.004 0.016 0.0005 -0.016 0.004 0.0005 -0.004 0.016 0.0005
0.015 0.007 0.0005 0.007 0.015 0.0005 -0.015 0.007 0.0005 -0.007
0.015 0.0005 0.014 0.009 0.0005 0.009 0.014 0.0005 -0.014 0.009
0.0005 -0.009 0.014 0.0005 0.016 0.005 0.0005 0.005 0.016 0.0005
-0.016 0.005 0.0005 -0.005 0.016 0.0005 0.012 0.012 0.0005 -0.012
0.012 0.0005 0.015 0.008 0.0005 0.008 0.015 0.0005 -0.015 0.008
0.0005 -0.008 0.015 0.0005 0.017 0 0.0005 0 0.017 0.0005
-0.017 0 0.0005 0.013 0.011 0.0005 0.011 0.013 0.0005 -0.013
0.011 0.0005 -0.011 0.013 0.0005 0.017 0.001 0.0005 0.001 0.017
0.0005 -0.017 0.001 0.0005 -0.001 0.017 0.0005 0.016 0.006 0.0005
0.006 0.016 0.0005 -0.016 0.006 0.0005 -0.006 0.016 0.0005 0.017
0.002 0.0005 0.002 0.017 0.0005 -0.017 0.002 0.0005 -0.002 0.017
0.0005 0.014 0.01 0.0005 0.01 0.014 0.0005 -0.014 0.01 0.0005
-0.01 0.014 0.0005 0.017 0.003 0.0005 0.003 0.017 0.0005 -0.017
0.003 0.0005 -0.003 0.017 0.0005 0.016 0.007 0.0005 0.007 0.016
0.0005 -0.016 0.007 0.0005 -0.007 0.016 0.0005 0.017 0.004 0.0005
0.004 0.017 0.0005 -0.017 0.004 0.0005 -0.004 0.017 0.0005 0.015
0.009 0.0005 0.009 0.015 0.0005 -0.015 0.009 0.0005 -0.009 0.015
0.0005 0.013 0.012 0.0005 0.012 0.013 0.0005 -0.012 0.013 0.0005
-0.013 0.012 0.0005 0.017 0.005 0.0005 0.005 0.017 0.0005 -0.017
0.005 0.0005 -0.005 0.017 0.0005 0.014 0.011 0.0005 0.011 0.014
0.0005 -0.014 0.011 0.0005 -0.011 0.014 0.0005 0.016 0.008 0.0005
0.008 0.016 0.0005 -0.016 0.008 0.0005 -0.008 0.016 0.0005 0.018
[...]
POINT_DATA 16001
FIELD attributes 17
p 1 16001 float
103206 103204 103131 103284 103130 103280 103059 103199 103362 103058 103127
103358 103274 103057 103349 102992 103191 103442 102991 103121 103437
103263 102989 103052 103427 103336 102930 103180 103521 102928 103112
103516 103251 102984 103412 102924 103044 103505 103322 102915 102974
103489 103395 102869 103162 103598 102866 103095 103594 103234 102858
103028 103584 103306 102901 103471 102844 102959 103569 103379 102810
103134 103673 102806 103070 103670 103210 102795 103008 103662 103286
102824 102881 103551 103454 102777 102938 103649 103364 102748 103089
103747 102744 102799 103031 103745 103535 103171 102755 102853 103634
103442 102733 102979 103739 103257 102716 102912 103729 103345 102729
102761 103619 103522 102688 103030 103818 102685 102982 103817 103119
102695 102815 103717 103430 102676 102940 103812 103219 102691 103607
102662 102874 103805 103319 102670 102708 103705 103514 102643 102761
103797 103417 102632 102942 103887 102630 102895 103886 103059 102623
102870 103883 103176 102636 102637 103694 103599 102622 102630 103788
103506 102611 102807 103879 103290 102595 102689 103874 103402 102588
103686 102592 102553 103779 103594 102585 102805 103951 102582 102785
103950 102965 102576 102800 103949 103132 102577 102545 103867 103498
102564 102752 103948 103259 102552 102520 103771 103680 102549 102632
103945 103386 102551 102468 103860 103590 102545 102476 104011 102541
102577 104011 102904 102534 102644 104012 103114 102534 102499 103940
103490 102500 103764 102522 102517 102446 102612 104012 103851 103676
103243 102514 102424 103933 103586 102508 102562 104011 103380 102510
102197 104067 102506 102476 102442 102464 104068 103843 103758 102067
102495 102460 104007 103485 102497 102497 104069 101826 102482 102400
103924 103673 102485 102490 104071 101615 102479 102397 104000 103584
102469 102500 104070 101430 102428 103836 102440 102398 103915 103755
102481 102225 104121 102454 102433 104067 101257 102477 102448 102374
102378 104122 103992 103671 102004 102467 102409 104124 101790 102454
102430 104125 101598 102436 102384 104061 101095 102402 102391 103908
103832 102436 102406 102368 102440 104125 103983 103754 101421 102406
102360 104053 100933 102412 102399 104122 101253 102452 102086 104173
102448 102223 104174 101926 102438 102378 102300 104175 103903 101747
102375 102365 103976 103830 102393 102359 104117 101093 102422 102348
104176 101574 102377 102351 104045 100777 102401 102371 104175 101410
102368 102338 104110 100932 102366 102360 103971 103901 102371 102353
104173 101248 102422 102362 102348 102029 104224 104038 100624 102419
102146 104224 101881 102410 102222 104225 101720 102354 102332 104168
101089 102358 102331 104103 100776 102393 102286 104225 101559 102368
102310 104223 101403 102353 103969 102357 102341 104034 100482 102342
102320 104163 100928 102336 102360 102327 102303 104221 104098 100623
101243 102388 101962 104273 102385 102063 104272 101840 102379 102144
104272 101697 102327 102314 104157 100772 102311 102294 104217 101085
102367 102338 102333 102210 104271 104032 100348 101549 102361 102325
104094 100482 102350 102239 104269 101398 102298 102291 104212 100923
102329 102307 104153 100620 102323 102242 104266 101240 102316 100227
102281 102289 104208 100767 102349 101942 104317 102337 102313 104092
100348 102348 102033 104316 101829 102297 102243 104263 101082 102346
102101 104315 101693 102325 102303 104150 100479 102344 102158 104313
101547 102272 102249 104259 100919 102340 102182 104311 101398 102274
102283 104204 100616 102303 102298 100227 100115 102328 102195 104309
101240 102309 102284 104148 100348 102262 102255 104256 100763 102313
102001 104354 102314 102265 102274 102061 104353 104202 101978 100476
102305 102207 104306 101081 102316 102096 104352 101932 102319 102121
104351 101891 102257 102254 104253 100612 102283 100116 102275 102222
104303 100917 102320 102134 104349 101859 102294 102268 100014 100228
102267 102255 104201 100347 102312 102148 104347 101831 102255 102234
104300 100761 102251 102249 104250 100474 102290 102166 104345 101807
102280 102011 104384 102282 102051 104383 101964 102285 102264 102255
102076 104383 101923 100015 100118 102267 102240 99920.7 100229 102288
102248 102236 102091 104382 104298 101887 100610 102262 102190 104343
101782 102253 102230 104249 100346 102288 102103 104381 101857 102280
102118 104380 101830 102244 102208 104341 101756 102240 102233 104296
100472 102236 100017 102245 102233 99921.6 100120 102265 102139 104379
101806 102248 102215 99834.3 100230 102254 101985 104406 102256 102017
104406 101951 102262 102046 104406 101916 102231 102216 104339 101729
102266 102070 104406 101883 102246 102236 102219 102164 104378 104295
101782 100345 102266 102088 104406 101854 102228 102220 99923.1 100019
102224 102217 104338 101701 102230 102235 102211 102182 104377 101756
99835 100122 102256 102106 104407 101829 102234 102204 99754.1 100230
102240 102126 104407 101806 102235 101973 104424 102221 102193 104376
101729 102238 102001 104424 101940 102223 102212 104337 101674 102242
102025 104425 101908 102220 102146 104407 101782 102210 99925.1 102246
102046 104425 101877 102220 102198 99836 100022 102245 102065 104426
101850 102225 102197 99754.7 100122 102212 102197 104375 101701 102201
102163 104406 101756 102233 102085 104427 101827 102221 102196 101650
99682 102216 102105 104428 101804 102194 102200 102186 102177 104406
101729 99837.4 99926.9 102205 102196 104374 101674 102224 101961 104439
102225 101985 104439 101932 102208 102179 99755.3 100022 102228 102004
104439 101901 102199 102126 104428 101781 102229 102212 102177 102023
104440 101630 101872 99682.7 102227 102042 104441 101846 102189 102186
104406 101700 102180 102201 102183 102145 104428 101650 101756 99619.6
102218 102063 104442 101824 102175 99838.6 102185 102164 99756.1 99927.3
102203 102195 102147 102085 104442 101614 101803 99683.2 102184 102188
104405 101673 102171 102163 104429 101728 102216 101956 104452 102216
102195 102162 101975 104452 101630 101928 99620.3 102217 102188 102108
101989 104452 104443 101780 101897 102217 102003 104452 101868 102170
102176 104429 101699 102183 102181 101649 99569.1 102215 102018 104452
101843 102160 102152 99756.9 99838.7 102168 102131 104443 101755 102174
102138 101600 99683.9 102211 102039 104452 101821 102183 102126 101614
99621 102171 102183 104428 101672 102202 102155 102153 102063 104452
104443 101727 101801 102183 102168 101629 99570 102205 101959 104463
102205 101970 104462 101927 102187 102089 104452 101779 102138 99756.8
102204 102153 102137 101972 104461 101587 101893 99684.5 102158 102172
104444 101698 102203 102176 102181 101981 104460 101648 101864 99530.3
102167 102125 101600 99621.9 102200 101993 104459 101839 102171 102116
104451 101754 102182 102143 101613 99570.9 102197 102014 104458 101818
102167 102184 104442 101670 102160 102143 104452 101726 102182 102174
101628 99531.2 102188 102040 104457 101799 102133 102125 101574 99684.3
102152 102130 101588 99622.7 102176 102173 102136 102071 104456 101600
101778 99572 102194 101959 104466 102193 101969 104466 101933 102174
102188 101646 99502.6 102159 102166 104452 101697 102192 101962 104465
101896 102191 101965 104463 101865 102185 102157 101613 99532.1 102161
102103 104456 101754 102188 101972 104461 101839 102121 101561 102163
102138 102114 102183 104450 101575 101669 99622.6 102183 101992 104459
101818 102181 102183 101628 99503.5 102158 102125 101588 99573 102152
102134 104456 101725 102172 102020 104458 101799 102178 102140 101600
99533.2 102172 102190 101645 99484.2 102162 102054 104457 101778 102183
101970 102157 102163 104456 101696 102183 101966 102183 102182 102165
101963 101613 99504.1 102181 102127 102109 101964 101562 101549 102146
102103 101575 99572.9 102151 102088 104457 101753 102176 101969 102161
102160 102115 102185 104455 101588 101668 99534.2 102177 102187 101627
99485 102166 101984 102146 102121 104457 101725 102175 102140 101600
99504.9 102154 102008 102163 102196 101645 99474.5 102106 101550 102137
102092 101537 101562 102145 102174 102169 102036 101612 99485.1 102153
102151 104457 101696 102174 101967 102174 101965 102140 102087 101576
99534 102172 101966 102168 101969 102146 102161 102105 102066 101588
99505.7 102157 101975 102162 102192 101627 99475.1 102158 102173 104456
101668 102143 102167 102138 101985 101600 99485.4 102142 102095 102115
102081 101539 101550 102131 102000 102126 102069 101527 101563 102161
102184 101644 99473.6 102157 102172 101612 99474.8 102137 102069 101576
99505.3 102143 102121 102124 102020 102167 101962 102152 102097 101589
99485.7 102166 101962 102161 101965 102124 102042 102154 101970 102152
102180 101626 99474.2 102143 102140 102143 102084 101975 101539 102152
102136 101601 99474.6 102107 102053 101529 101550 102121 102041 101519
101563 102131 101983 102124 102064 102125 102051 101576 99485 102132
102150 102128 101994 102140 102160 101612 99473.7 102131 102085 102141
102088 101589 99474.5 102128 102007 102161 102081 102050 101954 101529
101539 102158 101955 102123 102102 102018 102149 101521 101551 102150
101959 102124 102020 102149 102101 102142 102137 102124 101964 101600
99473.3 102107 102012 101513 101564 102128 101969 102120 102116 102035
102034 101577 99473.5 102115 101975 102121 102133 102135 102111 102113
101983 102125 102075 101589 99472.9 102048 101529 102077 102009 101521
101539 102136 102047 102091 101981 101515 101551 102115 101991 102118
102112 102155 102096 101987 101945 101508 101564 102117 102102 102151
101946 102142 101949 102112 102148 102058 101999 102136 101953 102106
102020 101576 99471.8 102123 101956 102112 102006 102109 102117 102100
101961 102046 102005 101521 101530 102135 102066 102070 101966 101515
101540 102105 102058 102096 101967 102075 101949 101510 101552 102123
102014 102095 101974 102085 101968 101506 101564 102123 102069 102107
102076 102150 101929 102146 101930 102119 102022 102106 101979 102138
102088 102006 101934 102004 101522 102134 102041 101960 101938 101515
101530 102051 101928 101510 101540 102124 101940 102106 102062 102121
101983 102111 102094 102039 102028 102099 101945 102059 101926 101508
101551 102076 101952 102114 102067 101956 101986 102088 102045 102077
102112 102031 101957 102002 101960 101515 101522 102023 101920 101510
101531 102076 101995 102099 101990 102145 101912 102143 102102 101960
101913 102034 101901 101508 101539 102135 101917 102128 101919 102043
101914 102105 102029 102120 101921 102071 102018 102108 101962 102107
101995 102087 101926 102055 101952 101962 101516 102075 101991 101921
101933 101511 101523 102100 101963 102086 102016 101892 102018 101508
101530 102102 101998 102093 101938 102048 101985 102016 101888 102090
101964 102094 101940 102140 101899 102031 101915 102138 101900 102134
101902 102092 101998 102062 101999 102131 101904 102090 102085 101967
101940 102129 101960 101926 101906 101512 101517 102019 101950 101992
101894 101509 101522 102129 101910 101997 101877 102089 101939 102077
101993 102150 101916 102002 101890 102082 101972 102040 101975 102156
101919 102085 101939 101992 101919 101929 101513 102120 101919 101960
101900 101510 101515 102055 101981 102131 101887 102131 102066 101974
101888 101979 101878 102131 101889 102134 102012 101948 101889 102081
101941 102103 101974 101878 101918 102135 101890 102144 101893 101967
101898 102057 101972 102036 101964 102097 101916 102137 101897 102078
101945 101933 101906 101511 101511 101988 101924 101956 101885 102100
101899 102087 101915 101963 101877 102053 101965 102070 101948 102088
101898 102015 101945 102122 101951 101886 101882 102123 101882 102127
101881 102084 101917 102132 101880 102091 101897 102132 101974 101907
101879 102064 101949 102043 101954 102129 101912 101879 101509 101935
101892 102087 101895 102079 101956 101882 101919 102007 101927 102095
101881 101950 101884 102057 101882 102084 101894 102060 101945 101967
101896 102029 101939 102073 101922 102066 101880 102118 101877 102121
101876 102128 102014 101912 101874 102079 101894 101915 101898 102133
101871 101939 101889 102081 101879 102130 101868 102054 101947 101886
101938 102066 101924 102126 101866 102023 101925 101962 101893 102080
102077 101896 101877 102117 101865 102007 101903 102098 101864 102061
101922 102073 101876 102046 101929 101902 102075 101898 101920 101894
102090 101862 101938 101891 102024 101913 102119 101874 102070 101876
102122 101872 101953 101894 102129 101869 102089 101861 102133 101864
102054 101918 102071 101899 101988 101899 102127 101859 102034 101918
102115 101854 102074 101877 102078 101860 102017 101904 102100 101851
101906 101897 101923 101894 102069 101898 102043 101912 102069 101859
101937 101896 102084 101849 102076 101877 102021 101909 101968 101898
102077 101846 102071 101859 102121 101868 102124 101998 101899 101867
102067 101896 102130 101863 102078 101845 102075 102027 101905 101877
102133 101857 101900 102129 101911 101896 101849 102074 101860 102015
101901 101924 101898 102069 101844 102120 101842 101948 101898 102106
102062 101893 101838 102074 101877 102010 101899 102071 101845 101981
101896 102079 101860 102091 101834 102011 101896 102082 101831 102081
101845 101903 101899 102071 101876 102053 101915 101899 101890 102078
101860 102121 101863 102123 101861 102082 101829 102127 101933 101899
101856 102129 101849 102000 101894 102126 101968 101894 101841 102080
101846 102076 101829 102120 101832 102068 101875 102076 101859 102004
101892 102042 101888 102109 101826 102083 101847 102078 101830 101902
102095 101910 101900 101822 101997 101889 101922 101899 102071 101859
102090 101818 102065 101950 101893 101875 102086 101832 102081 101847
102034 101885 101988 101888 102120 101856 102122 101854 102093 101815
102125 101849 102127 101842 102082 101833 102124 101833 101994 101885
102063 101859 102092 101815 102077 101847 102115 102061 101909 101902
101875 101824 101920 101900 102105 101817 101936 101892 102080 102030
101882 101835 102089 101817 102092 101965 101885 101812 102055 101861
102070 101847 102083 101807 102085 101819 101983 101881 102054 101875
102076 101837 102090 101804 102120 101850 102121 101907 101848 101917
101902 102010 101878 102124 101844 101930 101893 102125 102080 101821
101837 102058 101849 102046 101864 102123 101828 102072 101951 101883
101839 102092 101803 102118 101820 102038 101874 101965 101877 102078
101825 102110 101813 102091 101804 102048 101851 102103 101807 101982
101874 102064 101840 102032 101866 101914 101906 102091 101806 101924
101895 102100 101801 102073 101829 101941 101883 102007 101872 102099
101797 102126 101846 102127 101951 101874 101844 102050 101843 102128
101840 102035 101856 102087 101809 102128 101834 102068 101833 102006
101868 102124 101827 102098 101965 101869 101794 102119 101819 102082
101814 101910 102108 101812 101978 101868 101920 101898 102098 101793
102036 101846 101933 101884 102018 101860 102059 101837 102106 101806
101941 101872 101984 101867 102074 101821 102109 101794 102108 101799
101954 101866 102021 101851 102047 101841 102106 101793 102138 101845
102138 101844 102107 101798 101962 101863 102000 101863 102136 101840
102066 101828 102134 101835 101915 101902 102100 101788 102129 101829
101926 101887 101973 101864 101934 101872 102122 101822 102089 101805
102033 101846 102112 101815 102003 101943 101863 101857 102091 101785
102058 101836 102104 101981 101864 101808 101952 101860 102077 101814
102091 101785 102101 101801 102018 101961 101860 101851 101905 102049
101919 101889 101843 101983 101861 102102 101793 101929 101874 102091
101789 102152 101846 102151 101845 102067 101825 102149 101842 101936
101862 102146 101966 101862 101838 102104 101786 102139 101833 101945
101857 102085 101797 102125 101826 102036 101849 102002 101857 102101
101782 102059 101836 102113 101952 101856 101820 101962 101864 102109
101908 101891 101813 102077 101921 101876 101808 102087 101780 101957
101860 101930 101862 102107 101804 102023 101855 101983 101862 102052
101846 101938 101854 102115 101795 102078 101783 102070 101944 101864
101822 102163 101945 101853 101850 102163 101849 102160 101846 102154
101842 102114 101787 102145 101838 102009 101860 102041 101854 102081
101950 101857 101792 101891 102134 101962 101865 101832 101907 101876
102064 101836 101919 101862 102097 101782 102126 101825 101928 101853
101934 101862 102134 102078 101805 101818 102089 101935 101850 101780
102028 101860 101992 101864 102057 101849 102129 101809 101944 101866
101940 101854 102085 102072 101821 101782 102111 101800 101889 101874
102168 101855 102168 101903 101861 101853 102166 101928 101860 101850
102014 101865 102161 102101 101792 101847 102045 101914 101851 101859
101970 101868 102154 102085 101791 101843 101921 101847 102067 101838
102151 101837 102087 101786 101931 101866 102153 101831 101928 101850
102082 101805 102033 101866 102138 101823 101999 101868 102082 101783
102060 101852 101923 101857 101953 101869 101870 102119 101815 101883
101858 101895 101849 102076 101822 102085 101786 101904 101844 102100
101806 101924 101864 102020 101870 102171 101858 102049 101912 101847
101863 102171 101982 101871 101857 102171 101855 102098 101798 102170
101851 102086 101795 102169 102070 101839 101847 101940 101870 101913
101854 102167 101842 102106 101792 102160 101836 101864 101853 102007
101872 102037 101870 101874 101844 102084 101916 101862 101809 101884
101840 101966 101872 102140 101828 102102 102062 101854 101791 101893
101842 102131 101820 101928 101869 102078 101826 102101 101794 101897
101849 102130 102027 101875 101812 101995 101874 102053 101865 102174
101859 102175 101903 101859 101859 101951 101873 102176 101857 102122
101805 102094 101803 101844 102178 101855 102071 101853 101837 101842
102181 101861 101833 101852 102183 101914 101868 101847 101870 101836
102119 101801 102017 101877 102042 101873 102180 101982 101875 101840
102088 101816 101877 101843 102063 101855 102181 102116 101801 101833
101934 101874 101884 101854 102185 101825 102082 101831 102033 101878
102114 102006 101878 101805 101832 101826 101894 101865 102172 101839
101824 101817 102055 101865 101964 101877 101845 101826 102183 101860
102184 101859 102152 101812 102106 102073 101852 101835 101844 101815
102185 101859 102187 101913 101873 101859 102188 101856 102023 101880
101860 101847 101991 101879 102143 102045 101873 101810 102192 101851
102095 101827 102196 101844 102066 101855 101941 101878 101871 101859
102137 101812 102197 101813 101837 101817 101811 101821 101815 102009
101881 102193 102085 101886 101870 101838 101829 102038 101878 101825
101823 102130 101818 101970 101882 102058 101863 101832 101837 102183
101823 101913 101878 102076 101848 102120 101843 101852 101828 102197
101860 102169 101818 102197 101860 102196 101861 102026 101881 102195
101860 101993 101883 102049 101870 102195 101858 101796 101796 102160
101858 101866 101818 101943 101884 101797 101800 102198 101853 102105
101837 102070 101799 101810 101855 102201 101846 101802 101824 102155
101822 101880 101877 102203 101838 102011 101884 102041 101876 102091
101845 101970 101811 101841 101887 102200 101831 102141 102064 101860
101829 101911 101886 101826 101858 102191 101824 101778 102081 101851
101775 101783 102126 101838 102028 101774 101793 101881 102182 101821
102214 101995 101888 102213 102211 101847 101873 102054 101866 102208
101773 101809 101943 101892 102205 102176 101821 101778 101828 102203
102113 101846 102073 101854 101875 101886 102202 101790 101848 102166
101825 102012 101886 102203 102045 101972 101894 101872 102100 101851
101812 101866 102201 102067 101911 101756 101763 101896 101858 102150
101751 101775 101833 101747 101791 102196 101747 101812 101840 101883
102089 101853 101994 101893 102032 101879 102137 101842 102190 101947
101902 102233 102060 101863 102231 101754 101834 102227 102220 102212
101874 101897 102184 101773 101857 102124 102078 101854 101849 102204
101742 102014 101888 102197 101732 101755 101974 101901 102175 102051