# vtk DataFile Version 2.0
sampleSurface
ASCII
DATASET POLYDATA
POINTS 16001 float
0 0 0.0005 0 0.001 0.0005 0.001 0 0.0005 -0.001 0
0.0005 0.001 0.001 0.0005 -0.001 0.001 0.0005 0.002 0 0.0005
0 0.002 0.0005 -0.002 0 0.0005 0.002 0.001 0.0005 0.001
0.002 0.0005 -0.002 0.001 0.0005 -0.001 0.002 0.0005 0.002 0.002
0.0005 -0.002 0.002 0.0005 0.003 0 0.0005 0 0.003 0.0005
-0.003 0 0.0005 0.003 0.001 0.0005 0.001 0.003 0.0005 -0.003
0.001 0.0005 -0.001 0.003 0.0005 0.003 0.002 0.0005 0.002 0.003
0.0005 -0.003 0.002 0.0005 -0.002 0.003 0.0005 0.004 0 0.0005
0 0.004 0.0005 -0.004 0 0.0005 0.004 0.001 0.0005 0.001
0.004 0.0005 -0.004 0.001 0.0005 -0.001 0.004 0.0005 0.003 0.003
0.0005 -0.003 0.003 0.0005 0.004 0.002 0.0005 0.002 0.004 0.0005
-0.004 0.002 0.0005 -0.002 0.004 0.0005 0.004 0.003 0.0005 0.003
0.004 0.0005 -0.004 0.003 0.0005 -0.003 0.004 0.0005 0.005 0
0.0005 0 0.005 0.0005 -0.005 0 0.0005 0.005 0.001 0.0005
0.001 0.005 0.0005 -0.005 0.001 0.0005 -0.001 0.005 0.0005 0.005
0.002 0.0005 0.002 0.005 0.0005 -0.005 0.002 0.0005 -0.002 0.005
0.0005 0.004 0.004 0.0005 -0.004 0.004 0.0005 0.005 0.003 0.0005
0.003 0.005 0.0005 -0.005 0.003 0.0005 -0.003 0.005 0.0005 0.006
0 0.0005 0 0.006 0.0005 -0.006 0 0.0005 0.006 0.001
0.0005 0.001 0.006 0.0005 -0.006 0.001 0.0005 -0.001 0.006 0.0005
0.006 0.002 0.0005 0.002 0.006 0.0005 -0.006 0.002 0.0005 -0.002
0.006 0.0005 0.005 0.004 0.0005 0.004 0.005 0.0005 -0.005 0.004
0.0005 -0.004 0.005 0.0005 0.006 0.003 0.0005 0.003 0.006 0.0005
-0.006 0.003 0.0005 -0.003 0.006 0.0005 0.007 0 0.0005 0
0.007 0.0005 -0.007 0 0.0005 0.007 0.001 0.0005 0.005 0.005
0.0005 0.001 0.007 0.0005 -0.007 0.001 0.0005 -0.005 0.005 0.0005
-0.001 0.007 0.0005 0.006 0.004 0.0005 0.004 0.006 0.0005 -0.006
0.004 0.0005 -0.004 0.006 0.0005 0.007 0.002 0.0005 0.002 0.007
0.0005 -0.007 0.002 0.0005 -0.002 0.007 0.0005 0.007 0.003 0.0005
0.003 0.007 0.0005 -0.007 0.003 0.0005 -0.003 0.007 0.0005 0.006
0.005 0.0005 0.005 0.006 0.0005 -0.006 0.005 0.0005 -0.005 0.006
0.0005 0.008 0 0.0005 0 0.008 0.0005 -0.008 0 0.0005
0.008 0.001 0.0005 0.001 0.008 0.0005 -0.008 0.001 0.0005 -0.001
0.008 0.0005 0.007 0.004 0.0005 0.004 0.007 0.0005 -0.007 0.004
0.0005 -0.004 0.007 0.0005 0.008 0.002 0.0005 0.002 0.008 0.0005
-0.008 0.002 0.0005 -0.002 0.008 0.0005 0.006 0.006 0.0005 -0.006
0.006 0.0005 0.008 0.003 0.0005 0.003 0.008 0.0005 -0.008 0.003
0.0005 -0.003 0.008 0.0005 0.007 0.005 0.0005 0.005 0.007 0.0005
-0.007 0.005 0.0005 -0.005 0.007 0.0005 0.008 0.004 0.0005 0.004
0.008 0.0005 -0.008 0.004 0.0005 -0.004 0.008 0.0005 0.009 0
0.0005 0 0.009 0.0005 -0.009 0 0.0005 0.009 0.001 0.0005
0.001 0.009 0.0005 -0.009 0.001 0.0005 -0.001 0.009 0.0005 0.009
0.002 0.0005 0.002 0.009 0.0005 -0.009 0.002 0.0005 -0.002 0.009
0.0005 0.007 0.006 0.0005 0.006 0.007 0.0005 -0.007 0.006 0.0005
-0.006 0.007 0.0005 0.008 0.005 0.0005 0.005 0.008 0.0005 -0.008
0.005 0.0005 -0.005 0.008 0.0005 0.009 0.003 0.0005 0.003 0.009
0.0005 -0.009 0.003 0.0005 -0.003 0.009 0.0005 0.009 0.004 0.0005
0.004 0.009 0.0005 -0.009 0.004 0.0005 -0.004 0.009 0.0005 0.007
0.007 0.0005 -0.007 0.007 0.0005 0.008 0.006 0.0005 0.006 0.008
0.0005 -0.008 0.006 0.0005 -0.006 0.008 0.0005 0.01 0 0.0005
0 0.01 0.0005 -0.01 0 0.0005 0.01 0.001 0.0005 0.001
0.01 0.0005 -0.01 0.001 0.0005 -0.001 0.01 0.0005 0.01 0.002
0.0005 0.002 0.01 0.0005 -0.01 0.002 0.0005 -0.002 0.01 0.0005
0.009 0.005 0.0005 0.005 0.009 0.0005 -0.009 0.005 0.0005 -0.005
0.009 0.0005 0.01 0.003 0.0005 0.003 0.01 0.0005 -0.01 0.003
0.0005 -0.003 0.01 0.0005 0.008 0.007 0.0005 0.007 0.008 0.0005
-0.008 0.007 0.0005 -0.007 0.008 0.0005 0.01 0.004 0.0005 0.004
0.01 0.0005 -0.01 0.004 0.0005 -0.004 0.01 0.0005 0.009 0.006
0.0005 0.006 0.009 0.0005 -0.009 0.006 0.0005 -0.006 0.009 0.0005
0.011 0 0.0005 0 0.011 0.0005 -0.011 0 0.0005 0.011
0.001 0.0005 0.001 0.011 0.0005 -0.011 0.001 0.0005 -0.001 0.011
0.0005 0.011 0.002 0.0005 0.002 0.011 0.0005 -0.011 0.002 0.0005
-0.002 0.011 0.0005 0.01 0.005 0.0005 0.005 0.01 0.0005 -0.01
0.005 0.0005 -0.005 0.01 0.0005 0.008 0.008 0.0005 -0.008 0.008
0.0005 0.011 0.003 0.0005 0.009 0.007 0.0005 0.007 0.009 0.0005
0.003 0.011 0.0005 -0.011 0.003 0.0005 -0.009 0.007 0.0005 -0.007
0.009 0.0005 -0.003 0.011 0.0005 0.01 0.006 0.0005 0.006 0.01
0.0005 -0.01 0.006 0.0005 -0.006 0.01 0.0005 0.011 0.004 0.0005
0.004 0.011 0.0005 -0.011 0.004 0.0005 -0.004 0.011 0.0005 0.012
0 0.0005 0 0.012 0.0005 -0.012 0 0.0005 0.012 0.001
0.0005 0.009 0.008 0.0005 0.008 0.009 0.0005 0.001 0.012 0.0005
-0.012 0.001 0.0005 -0.009 0.008 0.0005 -0.008 0.009 0.0005 -0.001
0.012 0.0005 0.011 0.005 0.0005 0.005 0.011 0.0005 -0.011 0.005
0.0005 -0.005 0.011 0.0005 0.012 0.002 0.0005 0.002 0.012 0.0005
-0.012 0.002 0.0005 -0.002 0.012 0.0005 0.01 0.007 0.0005 0.007
0.01 0.0005 -0.01 0.007 0.0005 -0.007 0.01 0.0005 0.012 0.003
0.0005 0.003 0.012 0.0005 -0.012 0.003 0.0005 -0.003 0.012 0.0005
0.011 0.006 0.0005 0.006 0.011 0.0005 -0.011 0.006 0.0005 -0.006
0.011 0.0005 0.012 0.004 0.0005 0.004 0.012 0.0005 -0.012 0.004
0.0005 -0.004 0.012 0.0005 0.009 0.009 0.0005 -0.009 0.009 0.0005
0.01 0.008 0.0005 0.008 0.01 0.0005 -0.01 0.008 0.0005 -0.008
0.01 0.0005 0.013 0 0.0005 0 0.013 0.0005 -0.013 0
0.0005 0.012 0.005 0.0005 0.005 0.012 0.0005 -0.012 0.005 0.0005
-0.005 0.012 0.0005 0.013 0.001 0.0005 0.011 0.007 0.0005 0.007
0.011 0.0005 0.001 0.013 0.0005 -0.013 0.001 0.0005 -0.011 0.007
0.0005 -0.007 0.011 0.0005 -0.001 0.013 0.0005 0.013 0.002 0.0005
0.002 0.013 0.0005 -0.013 0.002 0.0005 -0.002 0.013 0.0005 0.013
0.003 0.0005 0.003 0.013 0.0005 -0.013 0.003 0.0005 -0.003 0.013
0.0005 0.012 0.006 0.0005 0.006 0.012 0.0005 -0.012 0.006 0.0005
-0.006 0.012 0.0005 0.01 0.009 0.0005 0.009 0.01 0.0005 -0.01
0.009 0.0005 -0.009 0.01 0.0005 0.013 0.004 0.0005 0.011 0.008
0.0005 0.008 0.011 0.0005 0.004 0.013 0.0005 -0.013 0.004 0.0005
-0.011 0.008 0.0005 -0.008 0.011 0.0005 -0.004 0.013 0.0005 0.012
0.007 0.0005 0.007 0.012 0.0005 -0.012 0.007 0.0005 -0.007 0.012
0.0005 0.013 0.005 0.0005 0.005 0.013 0.0005 -0.013 0.005 0.0005
-0.005 0.013 0.0005 0.014 0 0.0005 0 0.014 0.0005 -0.014
0 0.0005 0.014 0.001 0.0005 0.001 0.014 0.0005 -0.014 0.001
0.0005 -0.001 0.014 0.0005 0.014 0.002 0.0005 0.01 0.01 0.0005
0.002 0.014 0.0005 -0.014 0.002 0.0005 -0.01 0.01 0.0005 -0.002
0.014 0.0005 0.011 0.009 0.0005 0.009 0.011 0.0005 -0.011 0.009
0.0005 -0.009 0.011 0.0005 0.013 0.006 0.0005 0.006 0.013 0.0005
-0.013 0.006 0.0005 -0.006 0.013 0.0005 0.014 0.003 0.0005 0.003
0.014 0.0005 -0.014 0.003 0.0005 -0.003 0.014 0.0005 0.012 0.008
0.0005 0.008 0.012 0.0005 -0.012 0.008 0.0005 -0.008 0.012 0.0005
0.014 0.004 0.0005 0.004 0.014 0.0005 -0.014 0.004 0.0005 -0.004
0.014 0.0005 0.013 0.007 0.0005 0.007 0.013 0.0005 -0.013 0.007
0.0005 -0.007 0.013 0.0005 0.011 0.01 0.0005 0.01 0.011 0.0005
-0.011 0.01 0.0005 -0.01 0.011 0.0005 0.014 0.005 0.0005 0.005
0.014 0.0005 -0.014 0.005 0.0005 -0.005 0.014 0.0005 0.015 0
0.0005 0.012 0.009 0.0005 0.009 0.012 0.0005 0 0.015 0.0005
-0.015 0 0.0005 -0.012 0.009 0.0005 -0.009 0.012 0.0005 0.015
0.001 0.0005 0.001 0.015 0.0005 -0.015 0.001 0.0005 -0.001 0.015
0.0005 0.015 0.002 0.0005 0.002 0.015 0.0005 -0.015 0.002 0.0005
-0.002 0.015 0.0005 0.014 0.006 0.0005 0.006 0.014 0.0005 -0.014
0.006 0.0005 -0.006 0.014 0.0005 0.013 0.008 0.0005 0.008 0.013
0.0005 -0.013 0.008 0.0005 -0.008 0.013 0.0005 0.015 0.003 0.0005
0.003 0.015 0.0005 -0.015 0.003 0.0005 -0.003 0.015 0.0005 0.015
0.004 0.0005 0.004 0.015 0.0005 -0.015 0.004 0.0005 -0.004 0.015
0.0005 0.011 0.011 0.0005 -0.011 0.011 0.0005 0.012 0.01 0.0005
0.01 0.012 0.0005 -0.012 0.01 0.0005 -0.01 0.012 0.0005 0.014
0.007 0.0005 0.007 0.014 0.0005 -0.014 0.007 0.0005 -0.007 0.014
0.0005 0.015 0.005 0.0005 0.013 0.009 0.0005 0.009 0.013 0.0005
0.005 0.015 0.0005 -0.015 0.005 0.0005 -0.013 0.009 0.0005 -0.009
0.013 0.0005 -0.005 0.015 0.0005 0.016 0 0.0005 0 0.016
0.0005 -0.016 0 0.0005 0.016 0.001 0.0005 0.001 0.016 0.0005
-0.016 0.001 0.0005 -0.001 0.016 0.0005 0.016 0.002 0.0005 0.002
0.016 0.0005 -0.016 0.002 0.0005 -0.002 0.016 0.0005 0.014 0.008
0.0005 0.008 0.014 0.0005 -0.014 0.008 0.0005 -0.008 0.014 0.0005
0.015 0.006 0.0005 0.006 0.015 0.0005 -0.015 0.006 0.0005 -0.006
0.015 0.0005 0.016 0.003 0.0005 0.012 0.011 0.0005 0.011 0.012
0.0005 0.003 0.016 0.0005 -0.016 0.003 0.0005 -0.012 0.011 0.0005
-0.011 0.012 0.0005 -0.003 0.016 0.0005 0.013 0.01 0.0005 0.01
0.013 0.0005 -0.013 0.01 0.0005 -0.01 0.013 0.0005 0.016 0.004
0.0005 0.004 0.016 0.0005 -0.016 0.004 0.0005 -0.004 0.016 0.0005
0.015 0.007 0.0005 0.007 0.015 0.0005 -0.015 0.007 0.0005 -0.007
0.015 0.0005 0.014 0.009 0.0005 0.009 0.014 0.0005 -0.014 0.009
0.0005 -0.009 0.014 0.0005 0.016 0.005 0.0005 0.005 0.016 0.0005
-0.016 0.005 0.0005 -0.005 0.016 0.0005 0.012 0.012 0.0005 -0.012
0.012 0.0005 0.015 0.008 0.0005 0.008 0.015 0.0005 -0.015 0.008
0.0005 -0.008 0.015 0.0005 0.017 0 0.0005 0 0.017 0.0005
-0.017 0 0.0005 0.013 0.011 0.0005 0.011 0.013 0.0005 -0.013
0.011 0.0005 -0.011 0.013 0.0005 0.017 0.001 0.0005 0.001 0.017
0.0005 -0.017 0.001 0.0005 -0.001 0.017 0.0005 0.016 0.006 0.0005
0.006 0.016 0.0005 -0.016 0.006 0.0005 -0.006 0.016 0.0005 0.017
0.002 0.0005 0.002 0.017 0.0005 -0.017 0.002 0.0005 -0.002 0.017
0.0005 0.014 0.01 0.0005 0.01 0.014 0.0005 -0.014 0.01 0.0005
-0.01 0.014 0.0005 0.017 0.003 0.0005 0.003 0.017 0.0005 -0.017
0.003 0.0005 -0.003 0.017 0.0005 0.016 0.007 0.0005 0.007 0.016
0.0005 -0.016 0.007 0.0005 -0.007 0.016 0.0005 0.017 0.004 0.0005
0.004 0.017 0.0005 -0.017 0.004 0.0005 -0.004 0.017 0.0005 0.015
0.009 0.0005 0.009 0.015 0.0005 -0.015 0.009 0.0005 -0.009 0.015
0.0005 0.013 0.012 0.0005 0.012 0.013 0.0005 -0.012 0.013 0.0005
-0.013 0.012 0.0005 0.017 0.005 0.0005 0.005 0.017 0.0005 -0.017
0.005 0.0005 -0.005 0.017 0.0005 0.014 0.011 0.0005 0.011 0.014
0.0005 -0.014 0.011 0.0005 -0.011 0.014 0.0005 0.016 0.008 0.0005
0.008 0.016 0.0005 -0.016 0.008 0.0005 -0.008 0.016 0.0005 0.018
[...]
POINT_DATA 16001
FIELD attributes 17
p 1 16001 float
107148 107154 107097 107199 107104 107206 107052 107176 107245 107062 107129
107253 107227 107092 107275 107021 107208 107286 107034 107167 107294
107257 107072 107139 107317 107305 107012 107248 107321 107027 107216
107329 107291 107127 107348 107070 107199 107352 107337 107130 107195
107383 107381 107025 107287 107354 107041 107265 107361 107324 107086
107258 107383 107365 107194 107415 107138 107255 107412 107408 107061
107316 107385 107075 107305 107392 107347 107109 107309 107411 107383
107178 107236 107443 107442 107135 107302 107437 107424 107109 107324
107419 107115 107180 107318 107424 107469 107355 107130 107252 107465
107458 107124 107330 107440 107387 107107 107315 107463 107430 107082
107147 107490 107486 107154 107285 107457 107148 107286 107462 107329
107051 107236 107487 107464 107121 107318 107474 107370 107020 107506
107057 107308 107493 107419 106973 107097 107509 107493 106972 107210
107512 107458 107184 107204 107504 107164 107198 107507 107284 107102
107261 107516 107335 106930 106973 107523 107514 106911 107063 107529
107491 107009 107262 107529 107399 106933 107158 107543 107445 106937
107530 106934 106972 107540 107513 107196 106982 107559 107165 106989
107560 107164 107084 107171 107565 107279 106925 107031 107554 107482
106987 107231 107572 107367 107006 106989 107544 107529 106946 107125
107579 107428 107012 106984 107560 107508 107194 106547 107621 107159
106603 107622 107067 107074 106963 107622 107243 106987 107007 107583
107472 107083 107542 106990 107103 107017 107151 107622 107560 107524
107345 107094 106975 107584 107501 106977 107073 107620 107419 107188
106371 107688 107153 107157 107095 106645 107686 107555 107536 106491
107031 106963 107618 107466 107072 106909 107682 106271 107152 107006
107580 107519 107000 107019 107675 106050 107106 106937 107612 107498
106996 106961 107666 105828 107136 107548 107185 107075 107573 107531
107175 106635 107752 107025 106890 107657 105591 107138 107123 106974
106847 107749 107605 107516 106464 107058 106981 107741 106256 106992
106959 107729 106049 107058 106887 107646 105358 107122 107085 107565
107542 106985 107176 107031 106895 107714 107596 107529 105825 106986
106932 107636 105141 106991 106836 107699 105590 107152 106594 107807
107113 106773 107803 106435 107027 107003 106887 107793 107558 106247
107208 107025 107587 107540 106979 106840 107685 105356 106963 106886
107779 106048 107046 106966 107626 104947 106957 106825 107761 105824
106865 106870 107672 105138 107193 106926 107581 107556 106969 106784
107743 105589 107117 107126 107007 106615 107849 107617 104777 107074
106770 107846 106434 106980 106845 107836 106248 106939 106801 107727
105354 106832 106887 107662 104943 106913 106845 107822 106044 106918
106770 107805 105821 107121 107579 107159 106919 107612 104624 106860
106815 107714 105132 106951 106842 106923 106721 107788 107654 104772
105587 107072 106646 107878 107027 106790 107875 106452 106925 106852
107868 106255 106782 106819 107705 104932 106936 106743 107773 105351
106851 107223 107002 106860 107858 107610 104475 106044 106873 106881
107650 104619 106856 106768 107845 105818 106866 106779 107762 105125
106756 106796 107698 104759 106911 106668 107833 105584 107123 104323
106804 106797 107754 104920 107017 106679 107897 107052 107039 107648
104473 106973 106820 107896 106469 106912 106664 107822 105347 106869
106850 107892 106266 106789 106779 107695 104608 106786 106855 107887
106046 106859 106723 107814 105118 106782 106757 107882 105820 106710
106783 107749 104743 107141 107228 104324 104162 106843 106624 107876
105584 106918 107022 107693 104468 106779 106766 107808 104910 106956
106952 107913 106917 106638 106764 106955 107913 107746 107117 104595
106865 106576 107871 105347 106819 106959 107914 107142 106727 106906
107915 107151 106659 106768 107805 104731 107227 104165 106833 106630
107869 105117 106705 106794 107917 107136 107074 107135 103998 104326
106688 106848 107745 104462 106751 106640 107919 107097 106764 106709
107867 104906 106572 106772 107804 104584 106799 106536 107922 107038
106888 107052 107932 106854 107047 107934 107107 106769 107082 106938
107032 107938 107135 104003 104174 106768 106773 103844 104329 106673
106661 106751 106941 107945 107867 107147 104727 106778 106531 107926
106971 106566 106763 107803 104457 106634 106824 107953 107133 106661
106691 107963 107095 106726 106595 107929 106905 106588 106773 107868
104580 106767 104015 106749 106568 103848 104185 106736 106577 107973
107037 106596 106678 103715 104331 106813 107037 107960 106786 107007
107962 107092 106716 106978 107969 107123 106681 106660 107933 106848
106626 106901 107979 107139 106736 106560 106762 106511 107983 107867
106971 104455 106578 106812 107992 107128 106602 106537 103860 104029
106637 106703 107935 106805 106701 106587 106607 106509 107991 106904
103718 104193 106595 106730 108008 107093 106571 106713 103620 104332
106679 106654 108023 107037 106727 107009 107994 106697 106542 107998
106847 106706 106962 107997 107063 106619 106709 107935 106777 106653
106915 108004 107101 106697 106586 108038 106971 106560 103874 106577
106849 108017 107123 106581 106636 103726 104041 106532 106789 108033
107118 106592 106687 103622 104196 106675 106588 108002 106803 106670
106539 108051 106903 106538 106748 108051 107089 106623 106703 106760
103564 106627 106719 108070 107038 106680 106642 106666 106522 108061
106844 103736 103885 106670 106611 108003 106774 106633 106968 108032
106618 106906 108034 107030 106643 106723 103626 104046 106584 106848
108042 107075 106636 106683 108089 106973 106526 106653 106701 106788
108055 106753 107104 103564 106489 106742 108072 107107 106676 106528
108067 106797 106600 106674 106618 106634 108105 106757 106903 103537
106489 106726 108092 107085 106727 103745 106721 106751 103630 103889
106569 106699 106730 106729 108112 106751 107039 103563 106681 106529
108068 106765 106630 106591 108117 106840 106538 106928 108063 106529
106695 106627 106851 108066 106749 107000 103536 106513 106559 106730
106788 108074 108133 106976 107051 106475 106732 108087 107086 106637
106563 108125 106788 106688 106538 106746 103530 106434 106698 108104
107096 106779 106781 103634 103748 106529 106710 108151 106905 106753
106762 106754 103563 106428 106693 108124 107082 106723 106659 106748
103532 106647 106532 108126 106753 106442 106581 106678 106712 108146
108166 106837 107041 106699 106553 106739 103528 106455 106898 108087
106453 106802 108089 106978 106439 106737 108168 106980 106793 103636
106452 106780 106777 106728 108097 106761 107031 103562 106590 106637
108174 106780 106435 106654 106519 106670 108110 106732 107072 103530
106748 106691 106752 103528 106399 106642 108128 107086 106478 106742
108187 106907 106706 106580 106738 103522 106398 106644 108148 107078
106602 106590 108176 106740 106523 106728 108203 106835 106659 106519
106723 103528 106397 106670 108171 107042 106769 106773 106772 103562
106752 106711 106760 103524 106411 106708 106616 106707 108194 106744
106983 103514 106394 106825 108098 106397 106733 108100 106977 106611
106557 106716 103529 106535 106690 108213 106774 106409 106665 108108
107027 106413 106611 108121 107068 106657 106529 106724 103520 106464
106730 108216 106910 106403 106585 108139 107084 106748 106789 106548
106734 106716 106640 108215 106772 106728 103522 106400 106589 108160
107078 106619 106535 106706 103526 106701 106646 106754 103509 106484
106731 108233 106835 106424 106615 108183 107043 106654 106558 106732
103511 106560 106598 106701 103525 106444 106653 108207 106984 106354
106692 106495 106702 108245 106769 106359 106671 106376 106613 106527
106625 106707 103518 106393 106710 106702 106581 106790 106810 106683
106662 106770 103506 106457 106682 108229 106911 106398 106557 106503
106646 106582 106656 108247 106746 106721 103504 106576 106562 106689
103523 106392 106556 106464 106691 108248 106835 106606 106536 106718
103507 106404 106576 106514 106612 106690 103519 106670 106813 106663
106657 106834 106791 106429 106572 106542 106604 106692 103513 106469
106670 108261 106768 106335 106669 106341 106653 106632 106602 106767
103500 106358 106618 106377 106581 106443 106597 106556 106625 106737
103499 106389 106555 106526 106568 106678 103516 106476 106632 108263
106718 106396 106564 106541 106548 106706 103502 106445 106628 106631
106630 106838 106817 106407 106557 106616 106608 106859 106793 106484
106593 106686 103514 106528 106551 106681 103506 106587 106578 106764
103496 106448 106607 106417 106574 106327 106653 106556 106555 106729
103493 106334 106641 106352 106614 106426 106583 106375 106582 106493
106559 106674 103511 106455 106571 106390 106598 106555 106846 106527
106556 106697 103495 106592 106585 106864 106825 106573 106580 106879
106796 106402 106543 106428 106574 106548 106574 106761 103489 106463
106535 106409 106544 106497 106554 106677 103502 106432 106543 106524
106566 106724 103485 106409 106551 106326 106570 106566 106659 106874
106858 106335 106648 106472 106557 106555 106514 106885 106833 106355
106621 106414 106550 106441 106501 106381 106503 106571 106587 106694
103490 106538 106570 106893 106799 106398 106558 106415 106519 106586
106529 106759 103481 106405 106540 106477 106523 106449 106462 106407
106535 106504 106597 106721 103480 106554 106889 106545 106545 106896
106871 106422 106487 106531 106547 106899 106841 106407 106535 106458
106446 106326 106514 106588 106674 106895 106801 106483 106556 106335
106663 106359 106636 106411 106430 106434 106525 106391 106601 106502
106621 106758 103476 106406 106567 106413 106496 106414 106464 106468
106544 106539 106543 106912 106905 106438 106386 106526 106539 106910
106882 106489 106594 106414 106532 106512 106579 106901 106846 106419
106444 106411 106523 106500 106620 106892 106801 106448 106366 106471
106520 106324 106698 106335 106687 106425 106380 106414 106503 106360
106491 106619 106658 106534 106930 106400 106528 106537 106620 106927
106920 106513 106557 106912 106891 106425 106583 106455 106394 106416
106463 106432 106478 106576 106324 106434 106556 106503 106607 106897
106847 106428 106536 106422 106495 106617 106404 106463 106461 106418
106441 106299 106516 106524 106534 106945 106947 106518 106529 106927
106931 106486 106613 106426 106337 106324 106731 106335 106420 106481
106719 106508 106572 106907 106893 106360 106687 106403 106645 106503
106598 106448 106322 106438 106604 106471 106538 106421 106426 106431
106278 106456 106571 106495 106619 106524 106963 106441 106517 106525
106544 106945 106959 106426 106358 106458 106514 106528 106394 106922
106933 106437 106252 106420 106510 106485 106593 106509 106569 106429
106289 106423 106457 106325 106772 106505 106605 106336 106758 106358
106722 106444 106273 106469 106487 106401 106675 106425 106432 106237
106385 106436 106515 106515 106630 106962 106975 106499 106613 106516
106513 106939 106962 106474 106591 106515 106534 106430 106308 106455
106342 106451 106555 106513 106578 106436 106220 106485 106564 106409
106507 106432 106239 106510 106608 106506 106974 106420 106437 106517
106499 106955 106978 106466 106441 106331 106816 106341 106443 106246
106802 106518 106511 106355 106762 106392 106501 106604 106710 106436
106196 106424 106520 106543 106351 106414 106658 106452 106613 106519
106583 106454 106315 106482 106537 106430 106265 106421 106567 106439
106195 106511 106494 106966 106976 106514 106611 106521 106496 106385
106508 106433 106196 106523 106511 106465 106415 106446 106236 106419
106427 106500 106597 106338 106526 106550 106861 106342 106846 106348
106804 106438 106161 106361 106748 106421 106333 106369 106524 106591
106691 106456 106313 106479 106518 106358 106503 106639 106968 106520
106491 106430 106244 106443 106528 106494 106176 106514 106617 106343
106585 106532 106516 106376 106518 106434 106176 106467 106418 106533
106557 106495 106593 106450 106235 106412 106432 106344 106900 106345
106884 106346 106527 106600 106842 106443 106146 106518 106499 106348
106784 106534 106488 106419 106337 106361 106723 106480 106541 106495
106531 106456 106325 106346 106666 106511 106627 106543 106522 106430
106450 106172 106250 106346 106608 106541 106567 106390 106538 106465
106439 106435 106185 106494 106615 106520 106457 106244 106541 106495
106410 106452 106553 106488 106530 106620 106343 106927 106446 106159
106345 106912 106556 106500 106347 106872 106421 106360 106358 106815
106477 106562 106462 106344 106556 106533 106374 106754 106510 106652
106384 106695 106456 106190 106430 106280 106548 106586 106385 106636
106548 106520 106567 106496 106468 106460 106491 106654 106437 106221
106573 106491 106398 106569 106465 106266 106531 106653 106575 106508
106416 106488 106449 106200 106333 106937 106338 106569 106547 106924
106479 106581 106347 106887 106425 106404 106468 106510 106695 106368
106361 106835 106552 106382 106582 106521 106778 106459 106230 106554
106624 106594 106497 106435 106330 106390 106723 106598 106496 106393
106492 106680 106669 106472 106481 106534 106699 106442 106277 106593
106517 106465 106304 106408 106609 106580 106580 106421 106539 106451
106258 106594 106558 106480 106599 106511 106617 106525 106726 106467
106399 106322 106929 106333 106919 106431 106463 106351 106625 106500
106888 106374 106844 106562 106671 106401 106623 106503 106796 106457
106285 106440 106395 106413 106749 106492 106702 106472 106507 106611
106543 106536 106732 106416 106705 106463 106349 106446 106344 106604
106427 106638 106568 106658 106592 106627 106655 106533 106478 106622
106436 106601 106508 106658 106511 106766 106451 106322 106468 106435
106567 106710 106648 106526 106307 106902 106323 106894 106441 106536
106351 106872 106384 106841 106456 106340 106415 106806 106628 106588
106490 106729 106448 106474 106472 106534 106428 106536 106655 106620
106782 106773 106684 106582 106430 106742 106696 106546 106464 106598
106673 106391 106453 106423 106439 106694 106537 106709 106506 106812
106476 106646 106445 106667 106459 106396 106675 106572 106564 106765
106468 106466 106448 106616 106298 106861 106319 106681 106857 106715
106644 106644 106645 106352 106845 106738 106602 106389 106464 106402
106829 106484 106755 106535 106843 106421 106812 106471 106748 106575
106559 106454 106562 106433 106794 106597 106738 106738 106583 106469
106440 106439 106778 106460 106513 106500 106839 106446 106758 106711
106633 106475 106668 106564 106836 106747 106713 106466 106483 106773
106672 106450 106729 106471 106503 106794 106634 106663 106717 106453
106691 106294 106814 106314 106797 106619 106814 106482 106779 106347
106813 106522 106888 106472 106481 106382 106813 106474 106590 106607
106820 106422 106813 106458 106778 106642 106646 106443 106812 106477
106507 106779 106445 106809 106738 106707 106801 106745 106464 106605
106498 106873 106822 106706 106550 106907 106475 106696 106450 106800
106834 106674 106674 106805 106478 106560 106471 106578 106452 106783
106827 106671 106512 106940 106480 106807 106454 106755 106290 106772
106308 106775 106478 106573 106800 106710 106596 106908 106340 106785
106480 106638 106376 106798 106825 106807 106459 106720 106419 106813
106838 106775 106745 106794 106849 106737 106444 106826 106484 106592
106493 106906 106448 106835 106530 106852 106714 106981 106465 106687
106478 106736 106451 106662 106901 106836 106837 106727 106486 106636
106472 106666 106451 106827 106499 106801 106788 106982 106842 106478
106847 106826 106840 106575 106996 106453 106809 106850 106794 106481
106663 106285 106744 106300 106750 106487 106702 106335 106766 106854
106762 106378 106731 106889 106790 106458 106784 106425 106816 106849
106754 106490 106679 106447 106838 106488 106936 106511 107033 106464
106761 106480 106786 106444 106827 106789 106855 106637 106995 106447
106853 106854 106864 106491 106847 106837 106715 106472 106746 106779
106872 106844 106806 106447 106863 106483 107016 106548 107064 106473
106878 106842 106785 106449 106853 106484 106744 106489 106699 106980
106768 106277 106830 106797 106733 106292 106741 106335 106762 106382
106792 106454 106840 106433 106823 106482 107074 106478 106968 106492
106797 106856 106758 106858 106453 106602 107071 106851 106843 106860
106477 106836 106830 106842 106462 106827 106441 106872 106825 106817
106738 106953 106443 106495 106786 106885 106471 106816 106811 106819
106463 107046 106510 107110 106458 106912 106443 106891 106656 107055
106792 106843 106484 106493 106827 106820 106446 106892 106842 106863
106270 106738 106289 106816 106865 106746 106343 106748 106920 106770
106451 107105 106389 106450 106890 106802 106460 106802 106847 106989
106555 107123 106424 106493 106830 106836 106795 106831 106487 106879
106438 106864 106458 106888 106687 107019 106434 106886 106777 106840
106500 106850 106445 107059 106440 106902 106470 107141 106468 106887
106476 106939 106741 106888 106601 107104 106846 106441 106914 106807
106871 106778 106871 106499 106880 106482 106890 106766 106856 106445
106924 106690 106971 106421 107114 106272 106753 106478 106757 106848
107000 106296 106503 107148 106762 106360 106786 106449 106933 106405
106820 106495 106898 106426 106509 106917 106852 106627 107059 106728
106867 106432 106878 106456 106942 106431 106898 106807 106857 106429
107144 106450 107059 106758 106883 106512 106683 106922 106910 106733
106881 106540 107123 106440 106914 106464 106527 106961 106949 106728
106866 106441 106930 106628 107000 106531 106927 106478 106955 106714
106862 106445 106410 107104 106949 106447 107142 106517 107008 106285
106773 106311 106675 106884 106781 106564 107073 106382 106805 106446
106969 106493 106958 106818 106428 106838 106566 106750 106873 106951
106431 106704 106895 106869 106429 106622 106939 106892 106692 106888
106452 106988 106400 107122 106463 107051 106433 106476 107112 106908
106520 106962 106692 106871 106616 106980 106441 106459 107002 106923
106567 107008 106669 106865 106443 106942 106555 106968 106417 107080
106473 106398 107114 107009 106754 106834 106618 106890 106446 106684
106888 106966 106589 107011 106500 107061 106654 106901 106312 106790
106336 106798 106446 106995 106486 106594 106659 106887 106978 107009
106404 106821 106445 106564 106943 106853 106438 106881 106393 107087
106658 106866 106413 107081 106449 106507 107038 107022 106431 106902
106512 107004 106438 106916 106642 106993 106509 106998 106620 106862
106453 107042 106444 106766 106929 106678 106848 106622 106894 106365
107072 106446 106543 106563 106891 106999 106949 106460 107052 106617
106898 106464 107051 106433 107033 106622 107010 106634 106877 106448
106977 106509 106938 106580 106997 106477 106620 106855 107047 106345
106797 106448 107010 106366 106805 106425 106827 106414 107049 106450
106858 106359 107039 106564 107023 106441 106886 106680 106777 106449
106566 106859 107043 106446 106980 106603 106855 106439 106905 106503
107036 106612 106578 106889 107001 106442 106918 106598 106884 106448
107067 106505 106891 106446 106931 106363 107028 106524 107025 106527
107022 106365 106608 106862 107000 106448 106951 106457 106611 107006
107077 106449 106935 106568 106848 106450 106980 106687 106568 107011
106596 106785 106467 107071 106463 106552 106854 107013 106448 107016
106382 106329 106998 106399 106449 106501 106863 106602 107009 106460
106561 106878 106375 106965 106443 106447 107050 106584 106869 106443
106493 107055 106601 107005 106444 106901 106445 106562 106854 106445
107075 106398 106990 106449 106578 106311 106972 107002 106516 107035
106498 106855 106451 106611 106381 106599 106696 106939 107003 106452
106541 106791 107086 106537 106851 106454 106558 106870 106433 106883
106551 107018 106340 106967 106526 106984 106460 107080 106451 106308
106959 106421 106626 106999 106432 106550 106866 106471 106471 106449
106379 106926 106450 106492 106864 106486 106579 107007 107062 106446
106609 106464 106961 106445 106542 106710 106293 106956 106445 106615