#           y             T         TMean   TPrime2Mean           U_x           U_y           U_z       UMean_x       UMean_y       UMean_z UPrime2Mea... UPrime2Mea... UPrime2Mea... UPrime2Mea... UPrime2Mea... UPrime2Mea...            O2           H2O          C3H8             p         pMean   pPrime2Mean           CO2
         0.02       288.351       288.085      0.158449          27.5      0.208346             0       21.7043     -0.801324             0       42.2017      -2.26333             0       20.0146             0             0      0.221987   2.64875e-16     0.0348402        102629        103148        173355     4.853e-16
    0.0201677       288.279       288.082      0.153487       27.5026     0.0704244             0       21.7179     -0.779269             0       42.0574      -1.47546             0       20.3582             0             0      0.222999   2.40076e-16     0.0304394        102624        103148        173983   4.39864e-16
    0.0203353       288.207       288.079      0.148524       27.5052    -0.0674976             0       21.7316     -0.757214             0       41.9131     -0.687592             0       20.7018             0             0      0.224011   2.15277e-16     0.0260386        102620        103147        174611   3.94428e-16
     0.020503       288.135       288.077      0.143562       27.5078      -0.20542             0       21.7453      -0.73516             0       41.7688      0.100275             0       21.0453             0             0      0.225023   1.90479e-16     0.0216379        102615        103147        175239   3.48992e-16
    0.0206707       288.063       288.074      0.138599       27.5104     -0.343341             0        21.759     -0.713105             0       41.6244      0.888141             0       21.3889             0             0      0.226035    1.6568e-16     0.0172371        102611        103146        175866   3.03556e-16
    0.0208383       287.991       288.071      0.133637       27.5131     -0.481263             0       21.7726      -0.69105             0       41.4801       1.67601             0       21.7325             0             0      0.227048   1.40881e-16     0.0128363        102606        103145        176494   2.58121e-16
     0.021006       287.922       288.068       0.12872       27.4995     -0.618903             0       21.7808      -0.66866             0       41.3404       2.46742             0       22.0785             0             0      0.228017   1.17618e-16    0.00861959        102602        103145        177124   2.15498e-16
    0.0211737       287.925       288.071      0.125039       27.0507     -0.748955             0         21.64     -0.637248             0       41.3256       3.35414             0       22.4903             0             0      0.227848   1.35689e-16    0.00935643        102598        103144        177792   2.48608e-16
    0.0213413       287.929       288.073      0.121358       26.6019     -0.879006             0       21.4993     -0.605836             0       41.3108       4.24086             0       22.9021             0             0      0.227679    1.5376e-16     0.0100933        102593        103143        178460   2.81717e-16
     0.021509       287.932       288.076      0.117677       26.1531      -1.00906             0       21.3586     -0.574424             0        41.296       5.12758             0       23.3139             0             0      0.227509   1.71831e-16     0.0108301        102589        103143        179128   3.14826e-16
    0.0216767       287.935       288.079      0.113996       25.7043      -1.13911             0       21.2178     -0.543012             0       41.2811        6.0143             0       23.7258             0             0       0.22734   1.89902e-16     0.0115669        102585        103142        179796   3.47935e-16
    0.0218443       287.939       288.081      0.110314       25.2555      -1.26916             0       21.0771       -0.5116             0       41.2663       6.90102             0       24.1376             0             0       0.22717   2.07973e-16     0.0123038        102580        103141        180465   3.81045e-16
     0.022012       287.943       288.084      0.106752       24.7643      -1.40332             0       20.9258     -0.481623             0       41.2393       7.77981             0       24.5561             0             0      0.226981   2.26602e-16     0.0131252        102576        103141        181138   4.15178e-16
    0.0221797       287.952       288.091      0.104731       23.7236      -1.59068             0       20.6372     -0.470242             0        41.054       8.55582             0       25.0622             0             0       0.22654   2.52471e-16     0.0150434        102573        103140        181877   4.62574e-16
    0.0223473       287.962       288.098      0.102709        22.683      -1.77804             0       20.3486     -0.458862             0       40.8687       9.33184             0       25.5683             0             0      0.226099    2.7834e-16     0.0169617        102570        103139        182616    5.0997e-16
     0.022515       287.972       288.104      0.100688       21.6423       -1.9654             0       20.0601     -0.447482             0       40.6834       10.1079             0       26.0744             0             0      0.225658   3.04208e-16     0.0188799        102568        103139        183355   5.57366e-16
    0.0226827       287.982       288.111     0.0986665       20.6017      -2.15277             0       19.7715     -0.436102             0       40.4981       10.8839             0       26.5805             0             0      0.225216   3.30077e-16     0.0207981        102565        103138        184094   6.04763e-16
    0.0228504       287.991       288.118     0.0966451        19.561      -2.34013             0        19.483     -0.424721             0       40.3128       11.6599             0       27.0866             0             0      0.224775   3.55946e-16     0.0227163        102562        103138        184833   6.52159e-16
     0.023018       288.001       288.125     0.0948547       18.5033      -2.52949             0       19.1821     -0.417082             0       40.0955       12.4066             0       27.6166             0             0      0.224296   3.82274e-16     0.0247978        102559        103137        185581   7.00398e-16
    0.0231857       288.013       288.134     0.0949832       17.3039      -2.73548             0       18.7793     -0.440516             0       39.6118       12.9097             0       28.3448             0             0      0.223506   4.12421e-16     0.0282364        102558        103136        186403   7.55631e-16
    0.0233534       288.026       288.144     0.0951116       16.1045      -2.94147             0       18.3764      -0.46395             0       39.1281       13.4129             0       29.0731             0             0      0.222715   4.42567e-16      0.031675        102557        103136        187226   8.10865e-16
     0.023521       288.038       288.154     0.0952401       14.9051      -3.14745             0       17.9736     -0.487383             0       38.6445        13.916             0       29.8013             0             0      0.221924   4.72714e-16     0.0351136        102555        103135        188048   8.66099e-16
    0.0236887        288.05       288.163     0.0953685       13.7057      -3.35344             0       17.5707     -0.510817             0       38.1608       14.4192             0       30.5295             0             0      0.221133    5.0286e-16     0.0385521        102554        103134        188871   9.21333e-16
    0.0238564       288.062       288.173      0.095497       12.5063      -3.55943             0       17.1679      -0.53425             0       37.6771       14.9223             0       31.2578             0             0      0.220342   5.33006e-16     0.0419907        102553        103134        189693   9.76567e-16
     0.024024       288.073       288.182     0.0958211       11.3715      -3.76406             0       16.7656     -0.563849             0       37.2478       15.3767             0       32.0207             0             0      0.219504    5.6383e-16     0.0456349        102552        103133        190536   1.03304e-15
    0.0241917       288.081       288.193     0.0973155       10.6232      -3.96057             0       16.3669     -0.630306             0       37.1437       15.5395             0       32.9911             0             0      0.218383     5.987e-16     0.0505084        102552        103132        191501   1.09693e-15
    0.0243594       288.089       288.203     0.0988098       9.87494      -4.15709             0       15.9683     -0.696764             0       37.0396       15.7023             0       33.9615             0             0      0.217262    6.3357e-16     0.0553819        102551        103132        192466   1.16082e-15
     0.024527       288.097       288.213      0.100304       9.12664      -4.35361             0       15.5696     -0.763222             0       36.9355       15.8651             0       34.9319             0             0      0.216141   6.68441e-16     0.0602553        102551        103131        193431   1.22471e-15
    0.0246947       288.105       288.224      0.101798       8.37835      -4.55012             0       15.1709     -0.829679             0       36.8314       16.0279             0       35.9023             0             0       0.21502   7.03311e-16     0.0651288        102550        103130        194396    1.2886e-15
    0.0248624       288.113       288.234      0.103293       7.63005      -4.74664             0       14.7723     -0.896137             0       36.7273       16.1908             0       36.8726             0             0      0.213899   7.38182e-16     0.0700023        102550        103129        195361   1.35249e-15
      0.02503        288.12       288.244      0.104789       6.97913      -4.93664             0       14.3934     -0.968796             0       36.6348       16.3306             0       37.8836             0             0      0.212829   7.70384e-16     0.0746566        102549        103129        196359   1.41149e-15
    0.0251977        288.12       288.252      0.106297       6.77447       -5.0968             0       14.1055      -1.06988             0       36.5957       16.3651             0       39.0801             0             0       0.21199   7.90358e-16     0.0783058        102548        103127        197506   1.44808e-15
    0.0253654       288.121       288.261      0.107805       6.56981      -5.25696             0       13.8176      -1.17096             0       36.5567       16.3996             0       40.2767             0             0       0.21115   8.10333e-16      0.081955        102547        103126        198653   1.48468e-15
     0.025533       288.121       288.269      0.109312       6.36515      -5.41712             0       13.5297      -1.27204             0       36.5176       16.4342             0       41.4733             0             0      0.210311   8.30307e-16     0.0856042        102546        103125        199799   1.52128e-15
    0.0257007       288.122       288.277       0.11082        6.1605      -5.57728             0       13.2418      -1.37312             0       36.4785       16.4687             0       42.6699             0             0      0.209472   8.50281e-16     0.0892535        102545        103124        200946   1.55787e-15
    0.0258684       288.122       288.285      0.112327       5.95584      -5.73744             0       12.9539      -1.47421             0       36.4395       16.5032             0       43.8665             0             0      0.208632   8.70256e-16     0.0929027        102544        103123        202093   1.59447e-15
     0.026036       288.121       288.293      0.113685       5.77046      -5.89689             0       12.6805       -1.5788             0       36.2777       16.5238             0       45.1009             0             0      0.207894   8.85959e-16     0.0961113        102543        103121        203284   1.62324e-15
    0.0262037       288.116       288.296      0.114494       5.65549      -6.05378             0       12.4602      -1.69621             0       35.6678       16.4936             0       46.4732             0             0      0.207527    8.8606e-16     0.0977106        102541        103120        204634   1.62343e-15
    0.0263714       288.111         288.3      0.115303       5.54053      -6.21066             0       12.2398      -1.81362             0       35.0579       16.4633             0       47.8456             0             0      0.207159   8.86161e-16     0.0993098        102540        103118        205985   1.62361e-15
     0.026539       288.105       288.304      0.116112       5.42556      -6.36754             0       12.0195      -1.93103             0        34.448       16.4331             0       49.2179             0             0      0.206791   8.86261e-16      0.100909        102538        103117        207336    1.6238e-15
    0.0267067         288.1       288.308      0.116922        5.3106      -6.52442             0       11.7991      -2.04845             0       33.8381       16.4028             0       50.5903             0             0      0.206423   8.86362e-16      0.102508        102536        103115        208687   1.62398e-15
    0.0268744       288.095       288.312      0.117731       5.19563      -6.68131             0       11.5788      -2.16586             0       33.2282       16.3726             0       51.9627             0             0      0.206055   8.86463e-16      0.104108        102534        103114        210038   1.62417e-15
     0.027042       288.089       288.315       0.11848       5.04779      -6.84163             0       11.3514      -2.28365             0       32.5661       16.3031             0        53.369             0             0      0.205745   8.85208e-16      0.105455        102532        103112        211416   1.62187e-15
    0.0272097       288.083       288.316      0.119053       4.80169      -7.01223             0       11.1029      -2.40258             0       31.7478       16.1162             0       54.8767             0             0      0.205608   8.79901e-16      0.106051        102530        103110        212876   1.61214e-15
    0.0273774       288.077       288.317      0.119625       4.55559      -7.18283             0       10.8545       -2.5215             0       30.9295       15.9293             0       56.3845             0             0      0.205471   8.74594e-16      0.106647        102528        103108        214336   1.60242e-15
     0.027545       288.071       288.318      0.120197       4.30948      -7.35343             0       10.6061      -2.64043             0       30.1112       15.7424             0       57.8922             0             0      0.205334   8.69286e-16      0.107243        102526        103107        215796    1.5927e-15
    0.0277127       288.065       288.319      0.120769       4.06338      -7.52403             0       10.3576      -2.75936             0       29.2929       15.5555             0          59.4             0             0      0.205197   8.63979e-16      0.107839        102523        103105        217256   1.58297e-15
    0.0278804       288.058        288.32      0.121341       3.81728      -7.69462             0       10.1092      -2.87828             0       28.4746       15.3686             0       60.9077             0             0       0.20506   8.58672e-16      0.108434        102521        103103        218716   1.57325e-15
     0.028048       288.053       288.321      0.121905       3.56646      -7.86549             0       9.85404      -2.99856             0       27.6381       15.1316             0       62.4077             0             0      0.204947   8.53878e-16      0.108926        102519        103101        220148   1.56446e-15
    0.0282157       288.052       288.322       0.12245       3.30387      -8.03702             0       9.58211       -3.1222             0       26.7565       14.7695             0       63.8883             0             0      0.204893   8.50363e-16       0.10916        102516        103099        221511   1.55802e-15
    0.0283834        288.05       288.323      0.122994       3.04128      -8.20855             0       9.31019      -3.24584             0       25.8749       14.4074             0       65.3689             0             0       0.20484   8.46849e-16      0.109393        102514        103097        222873   1.55158e-15
    0.0285511       288.048       288.323      0.123538       2.77869      -8.38008             0       9.03827      -3.36948             0       24.9934       14.0454             0       66.8494             0             0      0.204786   8.43334e-16      0.109627        102511        103095        224236   1.54514e-15
    0.0287187       288.046       288.324      0.124083       2.51609      -8.55161             0       8.76635      -3.49312             0       24.1118       13.6833             0         68.33             0             0      0.204732   8.39819e-16       0.10986        102509        103093        225598    1.5387e-15
    0.0288864       288.044       288.325      0.124627        2.2535      -8.72315             0       8.49443      -3.61676             0       23.2302       13.3213             0       69.8106             0             0      0.204679   8.36304e-16      0.110093        102506        103091        226961   1.53226e-15
    0.0290541       288.043       288.326      0.125061       1.98888      -8.89209             0       8.21882      -3.74112             0       22.3796       12.8964             0        71.208             0             0      0.204613   8.33757e-16      0.110378        102504        103090        228222    1.5276e-15
    0.0292217       288.044       288.326       0.12526       1.71998      -9.05558             0       7.93546      -3.86697             0       21.5943       12.3394             0       72.4306             0             0      0.204522   8.33243e-16      0.110772        102501        103088        229272   1.52666e-15
    0.0293894       288.044       288.327      0.125459       1.45108      -9.21908             0       7.65209      -3.99282             0        20.809       11.7824             0       73.6533             0             0      0.204432   8.32729e-16      0.111165        102498        103086        230322   1.52572e-15
    0.0295571       288.045       288.328      0.125659       1.18218      -9.38258             0       7.36873      -4.11868             0       20.0236       11.2255             0       74.8759             0             0      0.204341   8.32216e-16      0.111559        102496        103084        231372   1.52477e-15
    0.0297247       288.046       288.328      0.125858      0.913279      -9.54607             0       7.08537      -4.24453             0       19.2383       10.6685             0       76.0986             0             0      0.204251   8.31702e-16      0.111952        102493        103083        232422   1.52383e-15
    0.0298924       288.046       288.329      0.126058      0.644379      -9.70957             0         6.802      -4.37038             0        18.453       10.1115             0       77.3212             0             0       0.20416   8.31189e-16      0.112346        102491        103081        233472   1.52289e-15
    0.0300601       288.048        288.33      0.126153      0.376807      -9.86921             0       6.51475      -4.49479             0       17.8404        9.4851             0       78.3979             0             0      0.204031   8.31796e-16       0.11291        102488        103079        234361     1.524e-15
    0.0302277       288.052        288.33      0.126061      0.111612      -10.0219             0       6.22052      -4.61659             0       17.5375       8.73424             0       79.2128             0             0       0.20383    8.3441e-16      0.113781        102486        103078        234961   1.52879e-15
    0.0303954       288.055       288.331      0.125969     -0.153582      -10.1747             0       5.92629      -4.73839             0       17.2345       7.98338             0       80.0277             0             0       0.20363   8.37025e-16      0.114652        102483        103077        235561   1.53358e-15
    0.0305631       288.059       288.331      0.125878     -0.418777      -10.3274             0       5.63206      -4.86019             0       16.9316       7.23252             0       80.8426             0             0       0.20343   8.39639e-16      0.115522        102481        103075        236160   1.53837e-15
    0.0307307       288.062       288.332      0.125786     -0.683972      -10.4802             0       5.33783      -4.98199             0       16.6286       6.48166             0       81.6576             0             0       0.20323   8.42253e-16      0.116393        102478        103074        236760   1.54316e-15
    0.0308984       288.066       288.332      0.125694     -0.949166      -10.6329             0        5.0436      -5.10379             0       16.3257        5.7308             0       82.4725             0             0      0.203029   8.44868e-16      0.117263        102476        103073        237360   1.54796e-15
    0.0310661       288.071       288.333      0.125602      -1.20294      -10.7788             0       4.74962      -5.22201             0       16.2127       4.96927             0       83.1036             0             0      0.202767   8.49674e-16      0.118403        102473        103072        237790   1.55676e-15
    0.0312337       288.079       288.333       0.12551      -1.43914      -10.9143             0       4.45601      -5.33473             0       16.3918       4.19136             0        83.452             0             0       0.20241    8.5785e-16      0.119958        102471        103071        237958   1.57174e-15
    0.0314014       288.087       288.333      0.125418      -1.67534      -11.0498             0       4.16241      -5.44745             0        16.571       3.41344             0       83.8004             0             0      0.202052   8.66027e-16      0.121512        102468        103070        238127   1.58672e-15
    0.0315691       288.094       288.334      0.125326      -1.91154      -11.1853             0       3.86881      -5.56017             0       16.7501       2.63552             0       84.1489             0             0      0.201695   8.74204e-16      0.123066        102466        103069        238296    1.6017e-15
    0.0317367       288.102       288.334      0.125233      -2.14775      -11.3208             0       3.57521      -5.67289             0       16.9292        1.8576             0       84.4973             0             0      0.201337    8.8238e-16       0.12462        102463        103068        238464   1.61668e-15
    0.0319044        288.11       288.335      0.125141      -2.38395      -11.4563             0       3.28161      -5.78561             0       17.1083       1.07968             0       84.8457             0             0       0.20098   8.90557e-16      0.126175        102461        103067        238633   1.63167e-15
    0.0320721       288.118       288.335      0.125041       -2.6017      -11.5833             0        2.9955      -5.89418             0       17.3739      0.372518             0        85.012             0             0      0.200622   8.99765e-16      0.127729        102458        103066        238665   1.64854e-15
    0.0322397       288.125       288.335       0.12493      -2.79498      -11.6989             0       2.71933      -5.99727             0       17.7541     -0.240792             0       84.9365             0             0      0.200265   9.10341e-16      0.129283        102456        103066        238516   1.66791e-15
    0.0324074       288.133       288.335      0.124819      -2.98826      -11.8145             0       2.44316      -6.10036             0       18.1344     -0.854102             0       84.8611             0             0      0.199907   9.20917e-16      0.130838        102454        103065        238366   1.68729e-15
    0.0325751        288.14       288.335      0.124708      -3.18154      -11.9301             0       2.16699      -6.20344             0       18.5146      -1.46741             0       84.7857             0             0       0.19955   9.31493e-16      0.132392        102451        103065        238217   1.70667e-15
    0.0327427       288.147       288.335      0.124597      -3.37481      -12.0457             0       1.89083      -6.30653             0       18.8948      -2.08072             0       84.7103             0             0      0.199192   9.42069e-16      0.133947        102449        103064        238068   1.72605e-15
    0.0329104       288.155       288.334      0.124486      -3.56809      -12.1613             0       1.61466      -6.40962             0       19.2751      -2.69403             0       84.6349             0             0      0.198835   9.52645e-16      0.135501        102446        103064        237918   1.74542e-15
    0.0330781        288.16       288.334      0.124389      -3.73525      -12.2666             0       1.35055      -6.50728             0       19.6401      -3.17498             0       84.4012             0             0      0.198545   9.61786e-16      0.136761        102444        103064        237694   1.76217e-15
    0.0332457       288.164       288.334      0.124308      -3.87242      -12.3602             0       1.10029      -6.59871             0       19.9876      -3.50404             0        83.986             0             0      0.198333    9.6928e-16      0.137683        102442        103064        237384    1.7759e-15
    0.0334134       288.167       288.334      0.124227       -4.0096      -12.4537             0      0.850022      -6.69015             0       20.3351       -3.8331             0       83.5709             0             0      0.198121   9.76775e-16      0.138604        102439        103063        237074   1.78963e-15
    0.0335811       288.171       288.333      0.124147      -4.14678      -12.5473             0      0.599757      -6.78158             0       20.6826      -4.16216             0       83.1557             0             0      0.197909    9.8427e-16      0.139526        102437        103063        236763   1.80336e-15
    0.0337487       288.174       288.333      0.124066      -4.28396      -12.6408             0      0.349492      -6.87301             0       21.0301      -4.49122             0       82.7405             0             0      0.197697   9.91764e-16      0.140447        102435        103063        236453    1.8171e-15
    0.0339164       288.178       288.332      0.123985      -4.42114      -12.7343             0     0.0992264      -6.96445             0       21.3776      -4.82028             0       82.3253             0             0      0.197485   9.99259e-16      0.141369        102432        103063        236143   1.83083e-15
    0.0340841        288.18       288.332       0.12393      -4.53057      -12.8182             0     -0.137751      -7.04822             0       21.6505      -4.99069             0       81.7798             0             0      0.197334   1.00532e-15      0.142026        102430        103063        235811   1.84193e-15
    0.0342518       288.181       288.331      0.123899      -4.61243      -12.8926             0     -0.361518      -7.12437             0       21.8492       -5.0034             0       81.1048             0             0      0.197243   1.00994e-15      0.142421        102428        103063        235456    1.8504e-15
    0.0344194       288.183       288.331      0.123868      -4.69429      -12.9669             0     -0.585286      -7.20052             0        22.048      -5.01611             0       80.4298             0             0      0.197152   1.01457e-15      0.142816        102425        103064        235101   1.85888e-15
    0.0345871       288.184        288.33      0.123838      -4.77615      -13.0412             0     -0.809054      -7.27667             0       22.2467      -5.02881             0       79.7548             0             0      0.197061    1.0192e-15      0.143211        102423        103064        234746   1.86736e-15
    0.0347548       288.185        288.33      0.123807      -4.85801      -13.1155             0      -1.03282      -7.35282             0       22.4455      -5.04152             0       79.0798             0             0      0.196971   1.02383e-15      0.143606        102421        103064        234392   1.87584e-15
    0.0349224       288.187        288.33      0.123776      -4.93986      -13.1898             0      -1.25659      -7.42897             0       22.6442      -5.05423             0       78.4048             0             0       0.19688   1.02845e-15      0.144001        102419        103064        234037   1.88432e-15
    0.0350901       288.187       288.329      0.123811      -4.99425      -13.2527             0      -1.46835      -7.49484             0       22.7645      -4.92984             0       77.6124             0             0      0.196847   1.03337e-15      0.144143        102416        103065        233698   1.89332e-15
    0.0352578       288.187       288.329      0.123902      -5.02497      -13.3056             0      -1.66976      -7.55186             0       22.8172       -4.6874             0       76.7188             0             0      0.196865   1.03853e-15      0.144067        102414        103065        233374   1.90278e-15