#           y             T         TMean   TPrime2Mean           U_x           U_y           U_z       UMean_x       UMean_y       UMean_z UPrime2Mea... UPrime2Mea... UPrime2Mea... UPrime2Mea... UPrime2Mea... UPrime2Mea...            O2           H2O          C3H8             p         pMean   pPrime2Mean           CO2
         0.03       288.098       288.564      0.309031       6.77871      -11.0075             0       3.45387       1.22781             0       18.6909     -0.442477             0       53.7392             0             0      0.194526   1.28992e-15      0.154233        102723        103156        268797   2.36338e-15
    0.0301702       288.095       288.562       0.30617       6.59092      -10.9644             0       3.42568       1.26497             0       18.7701     -0.452782             0       53.6612             0             0      0.194515   1.29343e-15      0.154282        102723        103156        268249   2.36981e-15
    0.0303403       288.091        288.56      0.303309       6.40314      -10.9213             0       3.39748       1.30214             0       18.8494     -0.463087             0       53.5831             0             0      0.194504   1.29694e-15      0.154332        102722        103157        267701   2.37624e-15
    0.0305105       288.088       288.559      0.300448       6.21535      -10.8782             0       3.36928        1.3393             0       18.9286     -0.473393             0       53.5051             0             0      0.194492   1.30046e-15      0.154381        102722        103157        267152   2.38268e-15
    0.0306807       288.084       288.557      0.297587       6.02757      -10.8351             0       3.34109       1.37647             0       19.0078     -0.483698             0        53.427             0             0      0.194481   1.30397e-15       0.15443        102722        103157        266604   2.38911e-15
    0.0308509       288.081       288.555      0.294726       5.83978       -10.792             0       3.31289       1.41363             0       19.0871     -0.494003             0       53.3489             0             0       0.19447   1.30748e-15      0.154479        102722        103157        266056   2.39555e-15
     0.031021       288.077       288.553      0.291993       5.65241      -10.7472             0       3.28701       1.45119             0       19.1894     -0.499718             0       53.2571             0             0      0.194452   1.31086e-15      0.154555        102722        103158        265498   2.40175e-15
    0.0311912       288.076       288.551      0.290162       5.46799      -10.6909             0       3.27758       1.49155             0       19.4555     -0.472866             0       53.0678             0             0      0.194392   1.31334e-15      0.154816        102722        103158        264873   2.40628e-15
    0.0313614       288.075       288.548      0.288331       5.28357      -10.6346             0       3.26815       1.53191             0       19.7217     -0.446015             0       52.8785             0             0      0.194332   1.31582e-15      0.155078        102722        103159        264248   2.41082e-15
    0.0315315       288.074       288.546        0.2865       5.09915      -10.5782             0       3.25872       1.57227             0       19.9878     -0.419163             0       52.6892             0             0      0.194272   1.31829e-15       0.15534        102721        103159        263623   2.41536e-15
    0.0317017       288.072       288.544       0.28467       4.91473      -10.5219             0       3.24929       1.61263             0        20.254     -0.392311             0       52.4999             0             0      0.194212   1.32077e-15      0.155601        102721        103160        262998    2.4199e-15
    0.0318719       288.071       288.541      0.282839        4.7303      -10.4656             0       3.23986       1.65299             0       20.5201     -0.365459             0       52.3106             0             0      0.194152   1.32325e-15      0.155863        102721        103160        262374   2.42443e-15
     0.032042        288.07       288.539      0.281322       4.54809      -10.4064             0       3.23399       1.69347             0       20.8385     -0.323412             0       52.0981             0             0      0.194091   1.32527e-15      0.156126        102721        103161        261741   2.42814e-15
    0.0322122       288.069       288.536       0.28076       4.37262      -10.3385             0       3.23901       1.73431             0        21.316     -0.235054             0       51.8151             0             0       0.19403    1.3259e-15      0.156392        102721        103161        261083    2.4293e-15
    0.0323824       288.069       288.534      0.280199       4.19714      -10.2705             0       3.24403       1.77515             0       21.7934     -0.146697             0       51.5321             0             0      0.193969   1.32654e-15      0.156658        102720        103162        260425   2.43047e-15
    0.0325526       288.068       288.532      0.279637       4.02166      -10.2026             0       3.24905       1.81599             0       22.2709    -0.0583395             0        51.249             0             0      0.193907   1.32718e-15      0.156924        102720        103163        259768   2.43163e-15
    0.0327227       288.067       288.529      0.279076       3.84619      -10.1347             0       3.25406       1.85684             0       22.7484     0.0300179             0        50.966             0             0      0.193846   1.32781e-15       0.15719        102720        103163        259110    2.4328e-15
    0.0328929       288.067       288.527      0.278515       3.67071      -10.0667             0       3.25908       1.89768             0       23.2258      0.118375             0        50.683             0             0      0.193785   1.32845e-15      0.157457        102720        103164        258452   2.43396e-15
    0.0330631       288.066       288.524      0.278334       3.49971      -9.99444             0       3.26691       1.93797             0        23.812      0.229612             0       50.3728             0             0      0.193735    1.3287e-15      0.157674        102719        103164        257792   2.43442e-15
    0.0332332       288.065       288.522      0.278802       3.33631      -9.91474             0       3.27951       1.97734             0       24.5828      0.379708             0       50.0163             0             0      0.193704   1.32829e-15      0.157807        102719        103165        257129   2.43368e-15
    0.0334034       288.063       288.519      0.279269       3.17291      -9.83504             0       3.29212       2.01671             0       25.3537      0.529804             0       49.6598             0             0      0.193674   1.32789e-15      0.157941        102719        103166        256465   2.43294e-15
    0.0335736       288.062       288.517      0.279737       3.00952      -9.75534             0       3.30472       2.05607             0       26.1245        0.6799             0       49.3033             0             0      0.193643   1.32749e-15      0.158074        102719        103167        255802    2.4322e-15
    0.0337437       288.061       288.515      0.280204       2.84612      -9.67564             0       3.31732       2.09544             0       26.8953      0.829996             0       48.9467             0             0      0.193612   1.32708e-15      0.158208        102718        103167        255138   2.43147e-15
    0.0339139       288.059       288.512      0.280671       2.68272      -9.59593             0       3.32993        2.1348             0       27.6662      0.980092             0       48.5902             0             0      0.193581   1.32668e-15      0.158342        102718        103168        254474   2.43073e-15
    0.0340841       288.058        288.51      0.281462       2.52705      -9.51134             0       3.34491       2.17237             0       28.5801       1.15583             0          48.2             0             0      0.193556   1.32595e-15       0.15845        102718        103169        253815   2.42938e-15
    0.0342543       288.057       288.508      0.282584       2.37931      -9.42173             0       3.36234       2.20808             0       29.6405       1.35783             0       47.7753             0             0      0.193537   1.32488e-15      0.158534        102717        103170        253159   2.42742e-15
    0.0344244       288.056       288.506      0.283705       2.23156      -9.33212             0       3.37976       2.24379             0        30.701       1.55983             0       47.3505             0             0      0.193518    1.3238e-15      0.158617        102717        103171        252503   2.42546e-15
    0.0345946       288.055       288.503      0.284827       2.08381      -9.24251             0       3.39719        2.2795             0       31.7615       1.76183             0       46.9258             0             0      0.193499   1.32273e-15        0.1587        102716        103172        251847   2.42349e-15
    0.0347648       288.053       288.501      0.285949       1.93606       -9.1529             0       3.41461       2.31521             0       32.8219       1.96382             0        46.501             0             0       0.19348   1.32166e-15      0.158783        102716        103173        251192   2.42153e-15
    0.0349349       288.052       288.499      0.287071       1.78831      -9.06329             0       3.43203       2.35093             0       33.8824       2.16582             0       46.0762             0             0      0.193461   1.32059e-15      0.158867        102716        103174        250536   2.41957e-15
    0.0351051       288.051       288.498      0.288105       1.65205      -8.97004             0       3.45285       2.38343             0       35.0358       2.37432             0       45.6115             0             0      0.193437   1.31992e-15      0.158968        102715        103175        249890   2.41834e-15
    0.0352753        288.05       288.496      0.289085        1.5229      -8.87452             0       3.47576       2.41395             0       36.2467       2.58685             0        45.122             0             0      0.193411   1.31949e-15      0.159081        102715        103176        249250   2.41756e-15
    0.0354454       288.049       288.495      0.290065       1.39376      -8.77901             0       3.49867       2.44447             0       37.4576       2.79938             0       44.6326             0             0      0.193386   1.31907e-15      0.159193        102714        103177        248610   2.41678e-15
    0.0356156       288.048       288.494      0.291046       1.26461       -8.6835             0       3.52159       2.47499             0       38.6686        3.0119             0       44.1431             0             0       0.19336   1.31864e-15      0.159306        102714        103178        247970     2.416e-15
    0.0357858       288.047       288.492      0.292026       1.13546      -8.58798             0        3.5445       2.50551             0       39.8795       3.22443             0       43.6536             0             0      0.193334   1.31822e-15      0.159419        102713        103179        247331   2.41522e-15
     0.035956       288.046       288.491      0.293006       1.00631      -8.49247             0       3.56741       2.53603             0       41.0905       3.43696             0       43.1641             0             0      0.193308   1.31779e-15      0.159531        102713        103180        246691   2.41444e-15
    0.0361261       288.045        288.49      0.293102       0.89228      -8.39614             0       3.59417       2.56187             0       42.3021       3.61308             0       42.6413             0             0      0.193246    1.3191e-15      0.159801        102712        103181        246086   2.41684e-15
    0.0362963       288.045        288.49      0.292889      0.783529      -8.29953             0       3.62227       2.58608             0        43.514       3.77649             0       42.1069             0             0      0.193171   1.32102e-15      0.160125        102712        103182        245492   2.42036e-15
    0.0364665       288.045        288.49      0.292676      0.674778      -8.20292             0       3.65038       2.61029             0       44.7259        3.9399             0       41.5724             0             0      0.193097   1.32294e-15       0.16045        102711        103183        244899   2.42387e-15
    0.0366366       288.045       288.489      0.292463      0.566027      -8.10631             0       3.67848        2.6345             0       45.9378       4.10331             0        41.038             0             0      0.193022   1.32486e-15      0.160774        102711        103184        244306   2.42739e-15
    0.0368068       288.045       288.489       0.29225      0.457276       -8.0097             0       3.70658       2.65871             0       47.1497       4.26672             0       40.5035             0             0      0.192947   1.32678e-15      0.161098        102710        103186        243713    2.4309e-15
     0.036977       288.045       288.489      0.292037      0.348525      -7.91309             0       3.73468       2.68291             0       48.3616       4.43013             0       39.9691             0             0      0.192873    1.3287e-15      0.161423        102709        103187        243120   2.43442e-15
    0.0371471       288.046       288.489      0.290226      0.257072      -7.81829             0       3.76708       2.69952             0        49.458       4.55136             0        39.408             0             0      0.192722   1.33404e-15      0.162076        102709        103188        242581   2.44422e-15
    0.0373173       288.048       288.489      0.288165      0.168325      -7.72378             0       3.80015       2.71494             0       50.5363         4.666             0       38.8429             0             0       0.19256   1.33993e-15      0.162781        102708        103189        242052     2.455e-15
    0.0374875        288.05       288.489      0.286104      0.079578      -7.62926             0       3.83322       2.73036             0       51.6147       4.78063             0       38.2777             0             0      0.192398   1.34581e-15      0.163486        102707        103191        241522   2.46578e-15
    0.0376577       288.052        288.49      0.284043   -0.00916875      -7.53475             0       3.86629       2.74578             0        52.693       4.89527             0       37.7125             0             0      0.192236   1.35169e-15      0.164191        102707        103192        240992   2.47656e-15
    0.0378278       288.054        288.49      0.281982    -0.0979155      -7.44024             0       3.89937       2.76121             0       53.7713        5.0099             0       37.1473             0             0      0.192074   1.35758e-15      0.164896        102706        103193        240462   2.48734e-15
     0.037998       288.055        288.49      0.279921     -0.186662      -7.34573             0       3.93244       2.77663             0       54.8497       5.12454             0       36.5822             0             0      0.191912   1.36346e-15      0.165602        102706        103195        239933   2.49812e-15
    0.0381682       288.059        288.49      0.276046     -0.256905      -7.25376             0       3.97104       2.78064             0       55.6806       5.25896             0       35.9861             0             0      0.191663     1.374e-15      0.166682        102705        103196        239484   2.51742e-15
    0.0383383       288.062       288.491       0.27215     -0.326927      -7.16183             0       4.00972       2.78452             0       56.5086       5.39361             0       35.3896             0             0      0.191414   1.38459e-15      0.167767        102704        103197        239037   2.53683e-15
    0.0385085       288.065       288.491      0.268254     -0.396949      -7.06989             0       4.04839        2.7884             0       57.3366       5.52826             0       34.7932             0             0      0.191164   1.39518e-15      0.168852        102704        103199        238589   2.55624e-15
    0.0386787       288.068       288.491      0.264358     -0.466971      -6.97795             0       4.08706       2.79228             0       58.1647       5.66292             0       34.1968             0             0      0.190915   1.40578e-15      0.169937        102703        103200        238142   2.57565e-15
    0.0388488       288.072       288.491      0.260462     -0.536994      -6.88602             0       4.12573       2.79616             0       58.9927       5.79757             0       33.6003             0             0      0.190665   1.41637e-15      0.171022        102702        103201        237695   2.59505e-15
     0.039019       288.075       288.492      0.256456     -0.604995      -6.79405             0        4.1648       2.79868             0         59.79       5.93979             0       32.9996             0             0      0.190405   1.42742e-15      0.172153        102701        103203        237258   2.61529e-15
    0.0391892       288.079       288.491      0.251572     -0.656935      -6.70182             0       4.20702       2.79042             0        60.343       6.14209             0       32.3653             0             0       0.19006   1.44208e-15      0.173652        102701        103204        236901   2.64217e-15
    0.0393594       288.083       288.491      0.246688     -0.708875      -6.60958             0       4.24923       2.78216             0       60.8961       6.34439             0        31.731             0             0      0.189715   1.45675e-15      0.175152        102700        103206        236544   2.66904e-15
    0.0395295       288.088       288.491      0.241804     -0.760815      -6.51734             0       4.29145        2.7739             0       61.4492       6.54669             0       31.0966             0             0       0.18937   1.47142e-15      0.176651        102700        103207        236187   2.69592e-15
    0.0396997       288.092       288.491       0.23692     -0.812755      -6.42511             0       4.33366       2.76563             0       62.0023       6.74899             0       30.4623             0             0      0.189025   1.48609e-15      0.178151        102699        103208        235830   2.72279e-15
    0.0398699       288.096       288.491      0.232036     -0.864695      -6.33287             0       4.37588       2.75737             0       62.5554       6.95129             0       29.8279             0             0       0.18868   1.50076e-15       0.17965        102698        103210        235473   2.74967e-15
      0.04004       288.101        288.49      0.227266     -0.911918      -6.23957             0       4.41817       2.74694             0       63.0552        7.1619             0       29.1869             0             0      0.188312   1.51627e-15      0.181252        102698        103211        235139    2.7781e-15
    0.0402102       288.106        288.49      0.222869     -0.943811       -6.1428             0       4.46075       2.72943             0       63.3819        7.3995             0       28.5239             0             0      0.187867   1.53455e-15      0.183186        102697        103213        234876   2.81159e-15
    0.0403804       288.111       288.489      0.218471     -0.975703      -6.04602             0       4.50332       2.71193             0       63.7087       7.63711             0       27.8609             0             0      0.187422   1.55283e-15       0.18512        102696        103214        234614   2.84508e-15
    0.0405506       288.116       288.489      0.214074       -1.0076      -5.94925             0       4.54589       2.69443             0       64.0354       7.87472             0        27.198             0             0      0.186977   1.57111e-15      0.187055        102696        103215        234351   2.87858e-15
    0.0407207       288.121       288.488      0.209676      -1.03949      -5.85248             0       4.58846       2.67692             0       64.3622       8.11233             0        26.535             0             0      0.186533   1.58939e-15      0.188989        102695        103217        234089   2.91207e-15
    0.0408909       288.126       288.488      0.205279      -1.07138      -5.75571             0       4.63104       2.65942             0       64.6889       8.34994             0        25.872             0             0      0.186088   1.60767e-15      0.190923        102695        103218        233826   2.94556e-15
    0.0410611       288.131       288.487      0.201259      -1.09487      -5.65612             0       4.67278       2.64003             0       64.9627       8.56991             0       25.2086             0             0      0.185601     1.627e-15       0.19304        102694        103220        233597   2.98097e-15
    0.0412312       288.137       288.486      0.197914      -1.10333      -5.55151             0       4.71306       2.61728             0       65.1418       8.75837             0       24.5443             0             0      0.185039   1.64821e-15      0.195483        102694        103221        233426   3.01983e-15
    0.0414014       288.142       288.485       0.19457       -1.1118       -5.4469             0       4.75333       2.59452             0       65.3209       8.94683             0         23.88             0             0      0.184477   1.66941e-15      0.197926        102693        103223        233255   3.05868e-15
    0.0415716       288.148       288.484      0.191225      -1.12026      -5.34229             0        4.7936       2.57177             0       65.4999       9.13529             0       23.2157             0             0      0.183915   1.69062e-15      0.200368        102693        103224        233085   3.09753e-15
    0.0417417       288.154       288.483       0.18788      -1.12872      -5.23768             0       4.83387       2.54901             0        65.679       9.32374             0       22.5514             0             0      0.183353   1.71182e-15      0.202811        102692        103226        232914   3.13638e-15
    0.0419119       288.159       288.482      0.184536      -1.13719      -5.13307             0       4.87414       2.52626             0       65.8581        9.5122             0       21.8871             0             0      0.182791   1.73303e-15      0.205254        102692        103227        232743   3.17523e-15
    0.0420821       288.165       288.481      0.181843      -1.13241       -5.0251             0       4.91058       2.50202             0       66.0039       9.64213             0       21.2345             0             0       0.18221    1.7539e-15      0.207784        102691        103228        232610   3.21347e-15
    0.0422523        288.17        288.48      0.179852      -1.11341      -4.91354             0       4.94291       2.47618             0        66.114       9.70924             0       20.5944             0             0      0.181606    1.7744e-15      0.210407        102691        103230        232516   3.25104e-15
    0.0424224       288.175       288.478       0.17786      -1.09441      -4.80197             0       4.97523       2.45034             0       66.2241       9.77635             0       19.9544             0             0      0.181003   1.79491e-15       0.21303        102690        103231        232422   3.28861e-15
    0.0425926        288.18       288.477      0.175868       -1.0754      -4.69041             0       5.00756       2.42451             0       66.3342       9.84347             0       19.3143             0             0        0.1804   1.81542e-15      0.215653        102690        103233        232328   3.32619e-15
    0.0427628       288.185       288.475      0.173877       -1.0564      -4.57884             0       5.03989       2.39867             0       66.4443       9.91058             0       18.6742             0             0      0.179796   1.83593e-15      0.218276        102689        103234        232234   3.36376e-15
    0.0429329        288.19       288.474      0.171885       -1.0374      -4.46728             0       5.07221       2.37283             0       66.5544       9.97769             0       18.0342             0             0      0.179193   1.85644e-15      0.220899        102689        103235        232141   3.40134e-15
    0.0431031       288.193       288.471      0.170895      -1.00175      -4.35397             0       5.09576       2.34483             0       66.5868       9.96399             0       17.4063             0             0      0.178686   1.87274e-15      0.223104        102689        103237        232092   3.43122e-15
    0.0432733       288.194       288.469      0.170556     -0.955262      -4.23952             0        5.1136       2.31542             0       66.5685       9.89772             0       16.7863             0             0      0.178241   1.88632e-15      0.225037        102688        103238        232073   3.45609e-15
    0.0434434       288.196       288.466      0.170218     -0.908774      -4.12507             0       5.13144       2.28601             0       66.5502       9.83146             0       16.1663             0             0      0.177797    1.8999e-15      0.226971        102688        103240        232054   3.48096e-15
    0.0436136       288.197       288.464      0.169879     -0.862287      -4.01063             0       5.14929        2.2566             0        66.532       9.76519             0       15.5464             0             0      0.177352   1.91347e-15      0.228904        102687        103241        232035   3.50584e-15
    0.0437838       288.199       288.461      0.169541     -0.815799      -3.89618             0       5.16713       2.22719             0       66.5137       9.69892             0       14.9264             0             0      0.176907   1.92705e-15      0.230837        102687        103242        232017   3.53071e-15
     0.043954         288.2       288.459      0.169202     -0.769311      -3.78174             0       5.18497       2.19778             0       66.4954       9.63265             0       14.3064             0             0      0.176463   1.94062e-15      0.232771        102686        103244        231998   3.55558e-15
    0.0441241         288.2       288.455      0.169759     -0.701155      -3.66831             0       5.19166        2.1624             0       66.2596       9.49104             0       13.7012             0             0      0.176184   1.94785e-15      0.233983        102686        103245        232037   3.56883e-15
    0.0442943       288.198       288.451      0.170647      -0.62496      -3.55527             0       5.19422       2.12481             0       65.9431       9.32149             0       13.1015             0             0      0.175966   1.95272e-15      0.234929        102686        103246        232098   3.57776e-15
    0.0444645       288.197       288.447      0.171535     -0.548765      -3.44223             0       5.19678       2.08721             0       65.6265       9.15194             0       12.5018             0             0      0.175749    1.9576e-15      0.235874        102685        103247        232159   3.58669e-15
    0.0446346       288.195       288.444      0.172423     -0.472569      -3.32919             0       5.19933       2.04962             0       65.3099       8.98239             0        11.902             0             0      0.175531   1.96247e-15      0.236819        102685        103249        232221   3.59562e-15
    0.0448048       288.194        288.44      0.173311     -0.396374      -3.21615             0       5.20189       2.01203             0       64.9934       8.81283             0       11.3023             0             0      0.175314   1.96735e-15      0.237765        102684        103250        232282   3.60454e-15
     0.044975       288.192       288.436      0.174199     -0.320179       -3.1031             0       5.20445       1.97444             0       64.6768       8.64328             0       10.7026             0             0      0.175097   1.97222e-15       0.23871        102684        103251        232343   3.61347e-15
    0.0451451       288.189       288.431      0.175512     -0.208974      -2.98996             0       5.19496       1.92561             0       64.0495       8.39977             0       10.1397             0             0         0.175   1.97203e-15      0.239129        102684        103252        232456   3.61312e-15
    0.0453153       288.186       288.426      0.176897    -0.0917328      -2.87681             0       5.18339       1.87486             0       63.3685       8.14351             0       9.58316             0             0      0.174925   1.97096e-15      0.239456        102683        103254        232577   3.61116e-15
    0.0454855       288.183       288.421      0.178283     0.0255085      -2.76365             0       5.17182        1.8241             0       62.6876       7.88726             0       9.02665             0             0       0.17485   1.96989e-15      0.239784        102683        103255        232698    3.6092e-15