#           y             T         TMean   TPrime2Mean           U_x           U_y           U_z       UMean_x       UMean_y       UMean_z UPrime2Mea... UPrime2Mea... UPrime2Mea... UPrime2Mea... UPrime2Mea... UPrime2Mea...            O2           H2O          C3H8             p         pMean   pPrime2Mean           CO2
         0.04       288.097       288.387      0.112721      -2.57017      -11.5653             0       -5.2897       -7.4945             0       20.8353       7.17926             0       38.2169             0             0      0.206699   1.19355e-15      0.101308        102382        103108        226193   2.18681e-15
     0.039975       288.096       288.387       0.11286      -2.59565      -11.5873             0      -5.28292      -7.50157             0       20.8715       7.07858             0       38.3843             0             0      0.206682   1.19339e-15      0.101383        102382        103108        226190   2.18651e-15
    0.0399499       288.096       288.386      0.112998      -2.62114      -11.6093             0      -5.27614      -7.50865             0       20.9077        6.9779             0       38.5516             0             0      0.206665   1.19322e-15      0.101458        102382        103108        226187   2.18621e-15
    0.0399249       288.096       288.386      0.113137      -2.64662      -11.6313             0      -5.26936      -7.51573             0       20.9438       6.87723             0        38.719             0             0      0.206647   1.19306e-15      0.101533        102382        103108        226184   2.18591e-15
    0.0398999       288.096       288.386      0.113275      -2.67211      -11.6533             0      -5.26258      -7.52281             0         20.98       6.77655             0       38.8864             0             0       0.20663   1.19289e-15      0.101608        102382        103107        226181    2.1856e-15
    0.0398749       288.095       288.385      0.113414       -2.6976      -11.6753             0      -5.25581      -7.52988             0       21.0161       6.67587             0       39.0538             0             0      0.206613   1.19273e-15      0.101684        102382        103107        226178    2.1853e-15
    0.0398498       288.095       288.385      0.113552      -2.72308      -11.6973             0      -5.24903      -7.53696             0       21.0523       6.57519             0       39.2212             0             0      0.206595   1.19256e-15      0.101759        102382        103107        226175     2.185e-15
    0.0398248       288.095       288.385       0.11369      -2.74857      -11.7193             0      -5.24225      -7.54404             0       21.0885       6.47451             0       39.3885             0             0      0.206578    1.1924e-15      0.101834        102382        103107        226172   2.18469e-15
    0.0397998       288.094       288.384      0.113829      -2.77406      -11.7412             0      -5.23547      -7.55111             0       21.1246       6.37384             0       39.5559             0             0      0.206561   1.19223e-15      0.101909        102382        103106        226169   2.18439e-15
    0.0397748       288.094       288.384      0.113967      -2.79954      -11.7632             0      -5.22869      -7.55819             0       21.1608       6.27316             0       39.7233             0             0      0.206544   1.19207e-15      0.101984        102382        103106        226166   2.18409e-15
    0.0397497       288.094       288.384      0.114106      -2.82503      -11.7852             0      -5.22191      -7.56527             0       21.1969       6.17248             0       39.8907             0             0      0.206526    1.1919e-15      0.102059        102382        103106        226163   2.18378e-15
    0.0397247       288.094       288.383      0.114244      -2.85051      -11.8072             0      -5.21513      -7.57235             0       21.2331        6.0718             0       40.0581             0             0      0.206509   1.19174e-15      0.102134        102382        103106        226160   2.18348e-15
    0.0396997       288.093       288.383      0.114383        -2.876      -11.8292             0      -5.20836      -7.57942             0       21.2693       5.97112             0       40.2255             0             0      0.206492   1.19157e-15       0.10221        102382        103106        226157   2.18318e-15
    0.0396747       288.093       288.383      0.114521      -2.90149      -11.8512             0      -5.20158       -7.5865             0       21.3054       5.87045             0       40.3928             0             0      0.206474    1.1914e-15      0.102285        102382        103105        226154   2.18288e-15
    0.0396496       288.093       288.382      0.114659      -2.92697      -11.8732             0       -5.1948      -7.59358             0       21.3416       5.76977             0       40.5602             0             0      0.206457   1.19124e-15       0.10236        102382        103105        226150   2.18257e-15
    0.0396246       288.092       288.382      0.114798      -2.95246      -11.8952             0      -5.18802      -7.60065             0       21.3778       5.66909             0       40.7276             0             0       0.20644   1.19107e-15      0.102435        102382        103105        226147   2.18227e-15
    0.0395996       288.092       288.382      0.114936      -2.97794      -11.9172             0      -5.18124      -7.60773             0       21.4139       5.56841             0        40.895             0             0      0.206423   1.19091e-15       0.10251        102382        103105        226144   2.18197e-15
    0.0395746       288.092       288.381      0.115075      -3.00343      -11.9392             0      -5.17446      -7.61481             0       21.4501       5.46773             0       41.0624             0             0      0.206405   1.19074e-15      0.102585        102382        103104        226141   2.18166e-15
    0.0395495       288.092       288.381      0.115213      -3.02892      -11.9612             0      -5.16769      -7.62189             0       21.4862       5.36706             0       41.2297             0             0      0.206388   1.19058e-15       0.10266        102382        103104        226138   2.18136e-15
    0.0395245       288.091       288.381      0.115352       -3.0544      -11.9832             0      -5.16091      -7.62896             0       21.5224       5.26638             0       41.3971             0             0      0.206371   1.19041e-15      0.102736        102382        103104        226135   2.18106e-15
    0.0394995       288.091       288.381       0.11549      -3.07989      -12.0052             0      -5.15413      -7.63604             0       21.5586        5.1657             0       41.5645             0             0      0.206353   1.19025e-15      0.102811        102382        103104        226132   2.18075e-15
    0.0394745       288.091        288.38      0.115628      -3.10537      -12.0272             0      -5.14735      -7.64312             0       21.5947       5.06502             0       41.7319             0             0      0.206336   1.19008e-15      0.102886        102382        103104        226129   2.18045e-15
    0.0394494       288.091        288.38      0.115767      -3.13086      -12.0492             0      -5.14057       -7.6502             0       21.6309       4.96434             0       41.8993             0             0      0.206319   1.18992e-15      0.102961        102382        103103        226126   2.18015e-15
    0.0394244        288.09        288.38      0.115905      -3.15635      -12.0712             0      -5.13379      -7.65727             0        21.667       4.86367             0       42.0667             0             0      0.206302   1.18975e-15      0.103036        102382        103103        226123   2.17985e-15
    0.0393994        288.09       288.379      0.116044      -3.18183      -12.0932             0      -5.12702      -7.66435             0       21.7032       4.76299             0        42.234             0             0      0.206284   1.18959e-15      0.103111        102382        103103        226120   2.17954e-15
    0.0393744        288.09       288.379      0.116182      -3.20732      -12.1152             0      -5.12024      -7.67143             0       21.7394       4.66231             0       42.4014             0             0      0.206267   1.18942e-15      0.103187        102382        103103        226117   2.17924e-15
    0.0393493       288.089       288.379      0.116321      -3.23281      -12.1372             0      -5.11346       -7.6785             0       21.7755       4.56163             0       42.5688             0             0       0.20625   1.18925e-15      0.103262        102382        103102        226114   2.17894e-15
    0.0393243       288.089       288.378      0.116459      -3.25829      -12.1592             0      -5.10668      -7.68558             0       21.8117       4.46095             0       42.7362             0             0      0.206233   1.18909e-15      0.103337        102382        103102        226111   2.17863e-15
    0.0392993       288.089       288.378      0.116597      -3.28378      -12.1812             0       -5.0999      -7.69266             0       21.8478       4.36027             0       42.9036             0             0      0.206215   1.18892e-15      0.103412        102382        103102        226108   2.17833e-15
    0.0392743       288.089       288.378      0.116736      -3.30926      -12.2032             0      -5.09312      -7.69974             0        21.884        4.2596             0       43.0709             0             0      0.206198   1.18876e-15      0.103487        102382        103102        226104   2.17803e-15
    0.0392492       288.088       288.377      0.116874      -3.33475      -12.2252             0      -5.08635      -7.70681             0       21.9202       4.15892             0       43.2383             0             0      0.206181   1.18859e-15      0.103562        102382        103102        226101   2.17772e-15
    0.0392242       288.088       288.377      0.117013      -3.36024      -12.2472             0      -5.07957      -7.71389             0       21.9563       4.05824             0       43.4057             0             0      0.206163   1.18843e-15      0.103637        102382        103101        226098   2.17742e-15
    0.0391992       288.088       288.377      0.117151      -3.38572      -12.2692             0      -5.07279      -7.72097             0       21.9925       3.95756             0       43.5731             0             0      0.206146   1.18826e-15      0.103713        102382        103101        226095   2.17712e-15
    0.0391742       288.087       288.376       0.11729      -3.41121      -12.2912             0      -5.06601      -7.72805             0       22.0287       3.85688             0       43.7405             0             0      0.206129    1.1881e-15      0.103788        102382        103101        226092   2.17682e-15
    0.0391491       288.087       288.376      0.117428      -3.43669      -12.3132             0      -5.05923      -7.73512             0       22.0648       3.75621             0       43.9079             0             0      0.206112   1.18793e-15      0.103863        102382        103101        226089   2.17651e-15
    0.0391241       288.087       288.376      0.117566      -3.46218      -12.3352             0      -5.05245       -7.7422             0        22.101       3.65553             0       44.0752             0             0      0.206094   1.18777e-15      0.103938        102382        103101        226086   2.17621e-15
    0.0390991       288.087       288.375      0.117705      -3.48767      -12.3571             0      -5.04567      -7.74928             0       22.1371       3.55485             0       44.2426             0             0      0.206077    1.1876e-15      0.104013        102382        103100        226083   2.17591e-15
    0.0390741       288.086       288.375      0.117843      -3.51315      -12.3791             0       -5.0389      -7.75635             0       22.1733       3.45417             0         44.41             0             0       0.20606   1.18744e-15      0.104088        102382        103100        226080    2.1756e-15
     0.039049       288.086       288.375      0.117982      -3.53864      -12.4011             0      -5.03212      -7.76343             0       22.2095       3.35349             0       44.5774             0             0      0.206042   1.18727e-15      0.104163        102382        103100        226077    2.1753e-15
     0.039024       288.086       288.374       0.11812      -3.56412      -12.4231             0      -5.02534      -7.77051             0       22.2456       3.25282             0       44.7448             0             0      0.206025   1.18711e-15      0.104239        102382        103100        226074     2.175e-15
     0.038999       288.086       288.374      0.118257      -3.58951      -12.4447             0      -5.01832      -7.77745             0       22.2813       3.15272             0       44.9126             0             0      0.206007   1.18694e-15      0.104317        102382        103099        226071   2.17469e-15
     0.038974       288.086       288.374      0.118357      -3.61234       -12.457             0      -5.00561      -7.78116             0        22.306       3.06646             0        45.092             0             0      0.205971   1.18668e-15      0.104473        102382        103099        226081   2.17422e-15
    0.0389489       288.086       288.373      0.118456      -3.63518      -12.4692             0       -4.9929      -7.78487             0       22.3306       2.98021             0       45.2714             0             0      0.205935   1.18643e-15      0.104628        102382        103099        226091   2.17375e-15
    0.0389239       288.086       288.373      0.118556      -3.65802      -12.4815             0       -4.9802      -7.78858             0       22.3553       2.89396             0       45.4508             0             0        0.2059   1.18617e-15      0.104784        102382        103099        226100   2.17329e-15
    0.0388989       288.086       288.373      0.118655      -3.68085      -12.4937             0      -4.96749      -7.79229             0       22.3799        2.8077             0       45.6302             0             0      0.205864   1.18592e-15       0.10494        102382        103099        226110   2.17282e-15
    0.0388739       288.086       288.372      0.118755      -3.70369       -12.506             0      -4.95478        -7.796             0       22.4045       2.72145             0       45.8095             0             0      0.205828   1.18566e-15      0.105096        102382        103098        226119   2.17235e-15
    0.0388488       288.086       288.372      0.118854      -3.72653      -12.5182             0      -4.94207      -7.79971             0       22.4292        2.6352             0       45.9889             0             0      0.205792   1.18541e-15      0.105251        102382        103098        226129   2.17189e-15
    0.0388238       288.087       288.372      0.118954      -3.74936      -12.5305             0      -4.92936      -7.80342             0       22.4538       2.54894             0       46.1683             0             0      0.205756   1.18515e-15      0.105407        102382        103098        226139   2.17142e-15
    0.0387988       288.087       288.371      0.119053       -3.7722      -12.5428             0      -4.91665      -7.80713             0       22.4785       2.46269             0       46.3477             0             0      0.205721    1.1849e-15      0.105563        102383        103098        226148   2.17095e-15
    0.0387738       288.087       288.371      0.119153      -3.79504       -12.555             0      -4.90394      -7.81084             0       22.5031       2.37644             0       46.5271             0             0      0.205685   1.18464e-15      0.105719        102383        103098        226158   2.17048e-15
    0.0387487       288.087       288.371      0.119252      -3.81787      -12.5673             0      -4.89123      -7.81455             0       22.5278       2.29018             0       46.7064             0             0      0.205649   1.18439e-15      0.105874        102383        103097        226168   2.17002e-15
    0.0387237       288.087        288.37      0.119352      -3.84071      -12.5795             0      -4.87852      -7.81826             0       22.5524       2.20393             0       46.8858             0             0      0.205613   1.18413e-15       0.10603        102383        103097        226177   2.16955e-15
    0.0386987       288.087        288.37      0.119451      -3.86355      -12.5918             0      -4.86581      -7.82197             0       22.5771       2.11768             0       47.0652             0             0      0.205577   1.18388e-15      0.106186        102383        103097        226187   2.16908e-15
    0.0386737       288.087       288.369      0.119551      -3.88638       -12.604             0       -4.8531      -7.82568             0       22.6017       2.03142             0       47.2446             0             0      0.205541   1.18362e-15      0.106342        102383        103097        226197   2.16862e-15
    0.0386486       288.088       288.369       0.11965      -3.90922      -12.6163             0      -4.84039      -7.82939             0       22.6263       1.94517             0        47.424             0             0      0.205506   1.18337e-15      0.106497        102383        103096        226206   2.16815e-15
    0.0386236       288.088       288.369       0.11975      -3.93206      -12.6285             0      -4.82768       -7.8331             0        22.651       1.85892             0       47.6033             0             0       0.20547   1.18311e-15      0.106653        102383        103096        226216   2.16768e-15
    0.0385986       288.088       288.368      0.119849      -3.95489      -12.6408             0      -4.81497      -7.83681             0       22.6756       1.77266             0       47.7827             0             0      0.205434   1.18286e-15      0.106809        102384        103096        226226   2.16721e-15
    0.0385736       288.088       288.368      0.119949      -3.97773       -12.653             0      -4.80226      -7.84051             0       22.7003       1.68641             0       47.9621             0             0      0.205398    1.1826e-15      0.106965        102384        103096        226235   2.16675e-15
    0.0385485       288.088       288.368      0.120048      -4.00057      -12.6653             0      -4.78955      -7.84422             0       22.7249       1.60016             0       48.1415             0             0      0.205362   1.18235e-15       0.10712        102384        103096        226245   2.16628e-15
    0.0385235       288.088       288.367      0.120148       -4.0234      -12.6775             0      -4.77684      -7.84793             0       22.7496        1.5139             0       48.3209             0             0      0.205326   1.18209e-15      0.107276        102384        103095        226255   2.16581e-15
    0.0384985       288.088       288.367      0.120247      -4.04624      -12.6898             0      -4.76414      -7.85164             0       22.7742       1.42765             0       48.5003             0             0      0.205291   1.18184e-15      0.107432        102384        103095        226264   2.16535e-15
    0.0384735       288.089       288.367      0.120347      -4.06908       -12.702             0      -4.75143      -7.85535             0       22.7989        1.3414             0       48.6796             0             0      0.205255   1.18158e-15      0.107588        102384        103095        226274   2.16488e-15
    0.0384484       288.089       288.366      0.120446      -4.09191      -12.7143             0      -4.73872      -7.85906             0       22.8235       1.25514             0        48.859             0             0      0.205219   1.18133e-15      0.107743        102384        103095        226283   2.16441e-15
    0.0384234       288.089       288.366      0.120546      -4.11475      -12.7265             0      -4.72601      -7.86277             0       22.8482       1.16889             0       49.0384             0             0      0.205183   1.18107e-15      0.107899        102384        103095        226293   2.16394e-15
    0.0383984       288.089       288.366      0.120645      -4.13759      -12.7388             0       -4.7133      -7.86648             0       22.8728       1.08264             0       49.2178             0             0      0.205147   1.18082e-15      0.108055        102385        103094        226303   2.16348e-15
    0.0383734       288.089       288.365      0.120745      -4.16042       -12.751             0      -4.70059      -7.87019             0       22.8974      0.996383             0       49.3972             0             0      0.205112   1.18056e-15       0.10821        102385        103094        226312   2.16301e-15
    0.0383483       288.089       288.365      0.120845      -4.18326      -12.7633             0      -4.68788       -7.8739             0       22.9221       0.91013             0       49.5765             0             0      0.205076   1.18031e-15      0.108366        102385        103094        226322   2.16254e-15
    0.0383233       288.089       288.365      0.120944       -4.2061      -12.7755             0      -4.67517      -7.87761             0       22.9467      0.823877             0       49.7559             0             0       0.20504   1.18005e-15      0.108522        102385        103094        226332   2.16208e-15
    0.0382983        288.09       288.364      0.121044      -4.22893      -12.7878             0      -4.66246      -7.88132             0       22.9714      0.737624             0       49.9353             0             0      0.205004    1.1798e-15      0.108678        102385        103094        226341   2.16161e-15
    0.0382733        288.09       288.364      0.121143      -4.25177         -12.8             0      -4.64975      -7.88503             0        22.996       0.65137             0       50.1147             0             0      0.204968   1.17954e-15      0.108833        102385        103093        226351   2.16114e-15
    0.0382482        288.09       288.364      0.121243      -4.27461      -12.8123             0      -4.63704      -7.88874             0       23.0207      0.565117             0       50.2941             0             0      0.204932   1.17929e-15      0.108989        102385        103093        226361   2.16067e-15
    0.0382232        288.09       288.363      0.121342      -4.29744      -12.8245             0      -4.62433      -7.89245             0       23.0453      0.478864             0       50.4734             0             0      0.204897   1.17903e-15      0.109145        102385        103093        226370   2.16021e-15
    0.0381982        288.09       288.363      0.121442      -4.32028      -12.8368             0      -4.61162      -7.89616             0         23.07       0.39261             0       50.6528             0             0      0.204861   1.17878e-15      0.109301        102385        103093        226380   2.15974e-15
    0.0381732        288.09       288.362      0.121541      -4.34312       -12.849             0      -4.59891      -7.89987             0       23.0946      0.306357             0       50.8322             0             0      0.204825   1.17852e-15      0.109456        102386        103093        226390   2.15927e-15
    0.0381481        288.09       288.362      0.121641      -4.36595      -12.8613             0       -4.5862      -7.90358             0       23.1193      0.220104             0       51.0116             0             0      0.204789   1.17827e-15      0.109612        102386        103092        226399   2.15881e-15
    0.0381231       288.091       288.362       0.12174      -4.38879      -12.8735             0      -4.57349      -7.90729             0       23.1439      0.133851             0        51.191             0             0      0.204753   1.17801e-15      0.109768        102386        103092        226409   2.15834e-15
    0.0380981       288.091       288.361       0.12184      -4.41163      -12.8858             0      -4.56078        -7.911             0       23.1685     0.0475973             0       51.3704             0             0      0.204718   1.17776e-15      0.109924        102386        103092        226419   2.15787e-15
    0.0380731       288.091       288.361      0.121939      -4.43446       -12.898             0      -4.54808      -7.91471             0       23.1932    -0.0386559             0       51.5497             0             0      0.204682    1.1775e-15      0.110079        102386        103092        226428    2.1574e-15
     0.038048       288.091       288.361      0.122039       -4.4573      -12.9103             0      -4.53537      -7.91842             0       23.2178     -0.124909             0       51.7291             0             0      0.204646   1.17725e-15      0.110235        102386        103091        226438   2.15694e-15
     0.038023       288.091        288.36      0.122138      -4.48014      -12.9225             0      -4.52266      -7.92213             0       23.2425     -0.211162             0       51.9085             0             0       0.20461   1.17699e-15      0.110391        102386        103091        226447   2.15647e-15
     0.037998       288.091        288.36      0.122234      -4.50245       -12.934             0      -4.50945      -7.92551             0       23.2651      -0.29578             0       52.0882             0             0      0.204573   1.17671e-15      0.110554        102386        103091        226458   2.15595e-15
     0.037973       288.092        288.36       0.12228      -4.51872      -12.9366             0      -4.49055      -7.92514             0       23.2646     -0.361592             0       52.2718             0             0      0.204516   1.17612e-15      0.110798        102387        103091        226479   2.15487e-15
    0.0379479       288.092       288.359      0.122327      -4.53499      -12.9392             0      -4.47165      -7.92478             0       23.2641     -0.427404             0       52.4553             0             0       0.20446   1.17552e-15      0.111043        102387        103091        226500   2.15378e-15
    0.0379229       288.093       288.359      0.122374      -4.55126      -12.9418             0      -4.45274      -7.92441             0       23.2636     -0.493216             0       52.6389             0             0      0.204404   1.17493e-15      0.111288        102387        103091        226520   2.15269e-15
    0.0378979       288.093       288.359       0.12242      -4.56753      -12.9444             0      -4.43384      -7.92405             0       23.2631     -0.559028             0       52.8224             0             0      0.204347   1.17434e-15      0.111533        102387        103090        226541   2.15161e-15
    0.0378729       288.094       288.359      0.122467       -4.5838       -12.947             0      -4.41494      -7.92368             0       23.2626      -0.62484             0        53.006             0             0      0.204291   1.17375e-15      0.111778        102388        103090        226562   2.15052e-15
    0.0378478       288.095       288.358      0.122514      -4.60007      -12.9496             0      -4.39603      -7.92332             0       23.2621     -0.690652             0       53.1895             0             0      0.204235   1.17315e-15      0.112022        102388        103090        226583   2.14944e-15
    0.0378228       288.095       288.358       0.12256      -4.61634      -12.9522             0      -4.37713      -7.92295             0       23.2615     -0.756464             0       53.3731             0             0      0.204179   1.17256e-15      0.112267        102388        103090        226603   2.14835e-15
    0.0377978       288.096       288.358      0.122607      -4.63261      -12.9548             0      -4.35823      -7.92258             0        23.261     -0.822276             0       53.5566             0             0      0.204122   1.17197e-15      0.112512        102388        103090        226624   2.14726e-15
    0.0377728       288.096       288.358      0.122654      -4.64888      -12.9574             0      -4.33932      -7.92222             0       23.2605     -0.888088             0       53.7402             0             0      0.204066   1.17138e-15      0.112757        102389        103090        226645   2.14618e-15
    0.0377477       288.097       288.357      0.122701      -4.66515      -12.9599             0      -4.32042      -7.92185             0         23.26       -0.9539             0       53.9237             0             0       0.20401   1.17078e-15      0.113002        102389        103089        226666   2.14509e-15
    0.0377227       288.097       288.357      0.122747      -4.68142      -12.9625             0      -4.30152      -7.92149             0       23.2595      -1.01971             0       54.1073             0             0      0.203953   1.17019e-15      0.113246        102389        103089        226686   2.14401e-15