#           y             T         TMean   TPrime2Mean           U_x           U_y           U_z       UMean_x       UMean_y       UMean_z UPrime2Mea... UPrime2Mea... UPrime2Mea... UPrime2Mea... UPrime2Mea... UPrime2Mea...            O2           H2O          C3H8             p         pMean   pPrime2Mean           CO2
  1.11022e-19       287.687       288.222       0.17761       25.7622   2.50625e-17             0       15.5945   9.99042e-18             0       25.7885   1.44829e-17             0   2.30806e-17             0             0      0.229798   1.61513e-17   0.000880039        102557        103244        230289   2.95922e-17
  0.000500501       287.668       288.221      0.183251        25.763      0.112984             0        15.605     0.0450379             0       25.8215     0.0652905             0       0.10405             0             0      0.229569   2.30053e-17    0.00187425        102556        103244        230259     4.215e-17
     0.001001       287.648       288.221      0.188909       25.7638      0.225984             0       15.6155     0.0900754             0       25.8546      0.130558             0      0.208347             0             0      0.229339   2.98884e-17    0.00287589        102556        103244        230229   5.47611e-17
    0.0015015       287.584       288.222      0.203031       25.7668      0.346906             0       15.6396      0.134897             0       25.9805       0.18444             0      0.436056             0             0      0.228256   5.13175e-17    0.00758348        102556        103244        230137   9.40232e-17
     0.002002       287.519       288.223      0.217157         25.77      0.467766             0       15.6636      0.179717             0       26.1063      0.238307             0      0.664222             0             0      0.227165   7.28099e-17     0.0123244        102555        103243        230045   1.33401e-16
    0.0025025       287.433       288.229      0.232348       25.8118      0.573524             0        15.673      0.224146             0       26.2201      0.288567             0       1.00601             0             0      0.224166   1.10065e-16     0.0253631        102554        103243        229929    2.0166e-16
     0.003003       287.347       288.234      0.247509        25.854      0.678917             0       15.6822      0.268575             0       26.3321      0.338909             0       1.34829             0             0      0.221151   1.47406e-16     0.0384729        102553        103243        229813   2.70075e-16
    0.0035035       287.355       288.248      0.257693       25.9706      0.723775             0       15.6508      0.312983             0       26.1472      0.403021             0       1.77335             0             0      0.215425   1.98838e-16     0.0633688        102551        103242        229662   3.64308e-16
     0.004004       287.363       288.262      0.267845        26.087      0.768181             0        15.619      0.357405             0       25.9593      0.467412             0       2.19889             0             0      0.209693   2.50299e-16      0.088293        102550        103242        229510   4.58595e-16
    0.0045045       287.472        288.28      0.273908       26.1943      0.756655             0       15.5457      0.403525             0       25.3923      0.566372             0       2.68268             0             0      0.203154   3.05437e-16      0.116723        102548        103241        229319   5.59617e-16
   0.00500501       287.581       288.299      0.279955       26.2993      0.745664             0       15.4721      0.449643             0       24.8246      0.665463             0       3.16698             0             0      0.196635   3.60524e-16      0.145064        102546        103240        229128   6.60547e-16
   0.00550551        287.68       288.315      0.284417       26.1806      0.787724             0       15.3759      0.495621             0       24.1832       0.77757             0       3.70229             0             0      0.192169   4.10668e-16      0.164484        102544        103240        228938    7.5242e-16
   0.00600601       287.779       288.331      0.288855       26.0609      0.831093             0       15.2797      0.541559             0       23.5443      0.888816             0       4.23839             0             0      0.187731   4.60719e-16      0.183779        102542        103239        228749   8.44123e-16
   0.00650651       287.839       288.345      0.291371       25.8673      0.982165             0       15.1865      0.584313             0       23.1169      0.929183             0       4.84051             0             0      0.185682   5.03169e-16      0.192685        102539        103239        228538   9.21899e-16
   0.00700701       287.898       288.359      0.293853       25.6814       1.13312             0       15.0937      0.627021             0        22.693      0.968089             0       5.44394             0             0      0.183655   5.45578e-16      0.201499        102536        103238        228327   9.99601e-16
   0.00750751       287.929       288.368       0.29393       26.0435       1.27614             0       15.0198       0.66647             0       22.5203      0.904123             0       6.14044             0             0      0.183131   5.85145e-16      0.203776        102533        103237        228105    1.0721e-15
   0.00800801       287.959       288.378      0.293962       26.4161       1.41864             0       14.9463       0.70597             0       22.3504      0.840233             0       6.83915             0             0      0.182621   6.24797e-16      0.205994        102530        103236        227883   1.14474e-15
   0.00850851       287.964        288.38      0.291262       27.4358       1.52905             0       14.8928      0.748649             0       22.3584      0.781003             0       7.67372             0             0       0.18295   6.69656e-16      0.204566        102525        103235        227708   1.22693e-15
   0.00900901       287.968       288.383      0.288501       28.4539       1.63956             0       14.8392      0.791518             0       22.3663      0.725358             0       8.51037             0             0      0.183292    7.1458e-16      0.203078        102520        103235        227533   1.30924e-15
   0.00950951       287.946       288.383      0.282431       29.3912       1.75509             0       14.7833      0.844842             0       22.3747      0.865278             0       9.46053             0             0      0.184377   7.63078e-16      0.198359        102513        103234        227422    1.3981e-15
      0.01001       287.923       288.383      0.276338       30.3139       1.86956             0       14.7265      0.898427             0       22.3791       1.01121             0       10.4112             0             0      0.185484   8.11696e-16      0.193547        102506        103233        227312   1.48718e-15
    0.0105105       287.877       288.386      0.269127        30.518       1.93178             0       14.6316      0.964775             0       22.1912       1.45165             0       11.3871             0             0      0.187646   8.66169e-16      0.184148        102498        103232        227231   1.58698e-15
     0.011011       287.831       288.389      0.261954        30.709       1.99201             0       14.5353       1.03127             0       21.9987       1.89699             0        12.363             0             0      0.189816   9.20563e-16      0.174714        102490        103230        227151   1.68664e-15
    0.0115115       287.791       288.396      0.256442       30.3152       1.96389             0       14.3774       1.10409             0       21.6044       2.56042             0       13.3383             0             0      0.192348   9.71422e-16      0.163705        102481        103229        227102   1.77983e-15
     0.012012       287.751       288.403      0.250953       29.9217       1.93582             0       14.2178       1.17691             0       21.2079       3.22686             0       14.3129             0             0      0.194857    1.0217e-15      0.152797        102473        103228        227053   1.87195e-15
    0.0125125        287.75       288.413      0.246393       29.5418       1.90981             0       13.9833        1.2497             0       20.7256       4.01565             0       15.2611             0             0      0.196422   1.04852e-15      0.145993        102464        103226        227020   1.92109e-15
     0.013013       287.749       288.422      0.241865       29.1717       1.88756             0       13.7467       1.32235             0       20.2438       4.80549             0       16.2066             0             0      0.197961   1.07485e-15      0.139298        102456        103225        226988   1.96933e-15
    0.0135135        287.78       288.432      0.238584         29.17       2.00622             0       13.4328       1.39003             0       19.7789       5.63464             0       17.0472             0             0      0.198563   1.08292e-15      0.136682        102447        103223        226996   1.98411e-15
     0.014014       287.812       288.442      0.235363       29.1754       2.13021             0       13.1173       1.45729             0       19.3164       6.46004             0       17.8844             0             0       0.19916   1.09082e-15      0.134089        102439        103222        227006   1.99859e-15
    0.0145145       287.854       288.449      0.234185       29.4274       2.43938             0       12.7472       1.50962             0       18.9341       7.15545             0       18.6015             0             0      0.199574     1.093e-15      0.132288        102429        103221        227087   2.00258e-15
     0.015015       287.897       288.457      0.233045       29.6775       2.75262             0       12.3765       1.56126             0       18.5559       7.84323             0       19.3162             0             0       0.19999   1.09509e-15      0.130477        102419        103220        227170   2.00641e-15
    0.0155155       287.927       288.461      0.233129       29.8644       3.19751             0        11.986       1.59025             0       18.3069        8.2847             0       19.9485             0             0      0.200478   1.09422e-15      0.128357        102408        103218        227306   2.00481e-15
     0.016016       287.956       288.465      0.233192       30.0429       3.64442             0        11.596       1.61859             0       18.0635       8.71949             0       20.5791             0             0      0.200971   1.09329e-15      0.126211        102396        103217        227444   2.00312e-15
    0.0165165       287.964       288.467       0.23263       29.9681       4.15233             0       11.2182       1.62735             0       17.9889       8.95188             0       21.1575             0             0      0.201634   1.09074e-15       0.12333        102383        103217        227652   1.99845e-15
     0.017017       287.971       288.469      0.231973       29.8823       4.66084             0       10.8417       1.63579             0       17.9189       9.18015             0       21.7349             0             0      0.202304   1.08816e-15      0.120418        102369        103216        227860   1.99371e-15
    0.0175175       287.965       288.466      0.228627       29.4862       5.18646             0       10.5001       1.63535             0       17.9794       9.29146             0       22.2815             0             0      0.203173    1.0846e-15      0.116641        102354        103215        228096   1.98718e-15
     0.018018       287.958       288.464      0.225239       29.0783       5.71164             0       10.1601       1.63487             0       18.0413       9.39937             0       22.8284             0             0      0.204041   1.08104e-15      0.112865        102339        103215        228332   1.98066e-15
    0.0185185       287.945       288.457      0.220739        28.355       6.22491             0        9.8592       1.63314             0       18.1398       9.41632             0        23.384             0             0      0.204902    1.0776e-15      0.109122        102324        103214        228601   1.97437e-15
     0.019019       287.932        288.45       0.21634       27.6206       6.73652             0       9.55961       1.63137             0       18.2371       9.42891             0       23.9425             0             0      0.205757    1.0742e-15      0.105404        102308        103213        228870   1.96814e-15
    0.0195195       287.922       288.444      0.214518       26.6058       7.20609             0       9.29187        1.6285             0       18.3025       9.33112             0       24.5742             0             0      0.206464   1.07164e-15      0.102329        102293        103213        229171   1.96344e-15
      0.02002       287.912       288.439      0.212739       25.5824       7.67315             0       9.02527       1.62547             0       18.3677       9.22748             0       25.2103             0             0      0.207167    1.0691e-15     0.0992726        102277        103213        229471   1.95879e-15
    0.0205205       287.903       288.442      0.211994       24.3516       8.07979             0       8.78594        1.6185             0       18.4272       8.98372             0       25.9535             0             0      0.207766   1.06717e-15     0.0966715        102263        103212        229747   1.95526e-15
     0.021021       287.895       288.444      0.211204       23.1153       8.48371             0       8.54765       1.61134             0       18.4889       8.73288             0       26.7005             0             0      0.208361   1.06526e-15     0.0940807        102249        103212        230022   1.95175e-15
    0.0215215       287.887       288.454      0.209399       21.7518       8.82575             0       8.33311       1.59977             0       18.6023       8.32036             0       27.5349             0             0      0.208903    1.0636e-15     0.0917238        102236        103211        230266   1.94871e-15
     0.022022       287.879       288.465      0.207642       20.3849       9.16501             0       8.11922       1.58798             0       18.7183       7.90084             0       28.3712             0             0      0.209441   1.06195e-15     0.0893872        102224        103211        230506   1.94569e-15
    0.0225225       287.872       288.478      0.206932       18.9433       9.44421             0       7.91956       1.57139             0       18.8906       7.32937             0       29.2475             0             0      0.209877   1.06053e-15     0.0874895        102215        103210        230676   1.94309e-15
     0.023023       287.865       288.491      0.206287       17.4998       9.72021             0       7.72026       1.55442             0       19.0631       6.75181             0       30.1239             0             0      0.210303   1.05914e-15     0.0856369        102205        103209        230843   1.94054e-15
    0.0235235        287.86       288.503      0.206954       16.0163       9.93004             0       7.52875       1.52939             0       19.2395       6.04813             0       30.9992             0             0      0.210514   1.05834e-15       0.08472        102199        103209        230951   1.93907e-15
     0.024024       287.856       288.514      0.207711       14.5326       10.1357             0       7.33792       1.50376             0       19.4116        5.3396             0       31.8737             0             0      0.210713   1.05758e-15     0.0838577        102192        103208        231057   1.93768e-15
    0.0245245       287.853       288.525      0.210244       13.0453       10.2589             0       7.16077       1.46636             0       19.4992       4.53486             0       32.7305             0             0      0.210662   1.05764e-15     0.0840782        102188        103208        231120    1.9378e-15
     0.025025       287.849       288.535      0.212794       11.5593       10.3776             0       6.98482       1.42837             0       19.5808       3.72628             0       33.5862             0             0        0.2106   1.05776e-15     0.0843481        102184        103208        231180   1.93801e-15
    0.0255255       287.839       288.546      0.215647       10.0994       10.4118             0       6.83149       1.37907             0       19.5488       2.84461             0       34.4201             0             0      0.210322   1.05883e-15     0.0855566        102182        103208        231180   1.93998e-15
     0.026026       287.829       288.557      0.218339       8.64233       10.4421             0       6.67952       1.32935             0       19.5147       1.95945             0       35.2524             0             0      0.210033   1.05998e-15     0.0868145        102181        103207        231176   1.94208e-15
    0.0265265       287.811       288.566      0.218098       7.23805       10.4008             0       6.55217       1.27194             0       19.4399       1.01067             0       36.0545             0             0      0.209536   1.06247e-15     0.0889737        102183        103207        231094   1.94664e-15
     0.027027       287.793       288.576      0.217674        5.8378       10.3563             0       6.42605       1.21428             0       19.3686     0.0582033             0       36.8544             0             0      0.209035     1.065e-15     0.0911504        102185        103207        231007   1.95127e-15
    0.0275275       287.777       288.584      0.214045       4.50819       10.2563             0       6.32142       1.15227             0       19.3597     -0.958882             0       37.6183             0             0      0.208464   1.06825e-15     0.0936344        102190        103206        230843   1.95723e-15
     0.028028       287.761       288.592      0.210315       3.18289       10.1543             0       6.21791       1.09011             0       19.3567      -1.97879             0       38.3785             0             0      0.207902   1.07144e-15     0.0960772        102195        103206        230677   1.96308e-15
    0.0285285       287.756       288.595      0.204865       1.93028       10.0188             0        6.1333       1.02533             0       19.4555      -3.04622             0       39.0771             0             0        0.2075   1.07362e-15     0.0978264        102202        103206        230458   1.96708e-15
     0.029029       287.751       288.599       0.19946      0.683671       9.88124             0       6.04982      0.960397             0       19.5572       -4.1132             0       39.7681             0             0      0.207113   1.07571e-15     0.0995098        102209        103205        230240   1.97089e-15
    0.0295295       287.756       288.599      0.194799     -0.465335       9.71073             0       5.98457      0.892885             0       19.7064       -5.1728             0       40.3344             0             0      0.206971   1.07614e-15      0.100125        102218        103205        230015   1.97169e-15
      0.03003       287.761         288.6      0.190237      -1.60889       9.53853             0       5.92012      0.825378             0       19.8541      -6.22757             0       40.8871             0             0      0.206841    1.0765e-15      0.100692        102227        103205        229790   1.97234e-15
    0.0305305       287.774       288.599       0.18724      -2.66709       9.33977             0       5.86821      0.757958             0       19.9763      -7.20657             0       41.2261             0             0      0.206881   1.07557e-15      0.100516        102238        103206        229567   1.97064e-15
     0.031031       287.787       288.598      0.184275      -3.72118       9.14006             0       5.81652       0.69093             0       20.0924      -8.17596             0       41.5456             0             0      0.206924   1.07462e-15      0.100329        102248        103206        229344   1.96891e-15
    0.0315315       287.798       288.596      0.181807      -4.71305       8.92604             0       5.76824      0.629824             0       20.1163      -8.99998             0       41.5691             0             0      0.207003    1.0735e-15      0.099989        102260        103206        229116   1.96685e-15
     0.032032       287.808       288.594       0.17931      -5.69616       8.70783             0       5.72024       0.56939             0       20.1353      -9.81243             0       41.5708             0             0      0.207073   1.07244e-15     0.0996839        102271        103207        228889   1.96492e-15
    0.0325325       287.807       288.591      0.176409      -6.55113       8.42815             0       5.67636      0.518773             0       20.0815      -10.4557             0        41.252             0             0      0.207025   1.07239e-15     0.0998897        102283        103208        228690   1.96481e-15
     0.033033       287.805       288.589      0.173447      -7.40047       8.14612             0       5.63356      0.468832             0       20.0334      -11.0906             0       40.9142             0             0      0.206941   1.07238e-15      0.100255        102295        103208        228492   1.96479e-15
    0.0335335       287.791       288.587      0.169632         -8.17       7.83068             0       5.60606      0.428462             0       20.0659       -11.607             0       40.3068             0             0      0.206337   1.07307e-15      0.102883        102307        103209        228312   1.96606e-15
     0.034034       287.776       288.585      0.165792      -8.93952       7.51847             0        5.5806      0.388511             0       20.1108      -12.1167             0       39.6831             0             0      0.205697    1.0737e-15      0.105666        102320        103210        228136   1.96722e-15
    0.0345345       287.759       288.584      0.161604        -9.709       7.25071             0       5.58332       0.35432             0       20.3239      -12.5339             0        38.835             0             0      0.204567   1.07345e-15      0.110578        102332        103211        228004   1.96676e-15
     0.035035       287.743       288.583      0.157428      -10.4651       6.98135             0       5.58867      0.320338             0       20.5487      -12.9434             0       37.9723             0             0      0.203397   1.07268e-15      0.115663        102345        103212        227876   1.96535e-15
    0.0355355       287.745       288.581      0.153412      -11.0434       6.69063             0       5.62908      0.289132             0       20.9288      -13.2508             0       36.9156             0             0      0.201697   1.06503e-15      0.123057        102358        103213        227805   1.95133e-15
     0.036036       287.751        288.58      0.149459      -11.5998       6.39603             0       5.67168      0.258417             0       21.3298      -13.5541             0       35.8476             0             0      0.199895   1.05614e-15       0.13089        102370        103215        227736   1.93504e-15
    0.0365365         287.8       288.579      0.146323      -11.8722       6.05149             0       5.74251      0.234028             0       22.0009      -13.8034             0       34.6331             0             0      0.196794   1.03126e-15      0.144373        102383        103216        227697   1.88946e-15
     0.037037       287.851       288.578       0.14334      -12.1342       5.70896             0       5.81467      0.210347             0       22.7044      -14.0514             0        33.409             0             0      0.193715   1.00629e-15      0.157762        102395        103217        227662   1.84372e-15
    0.0375375       287.918       288.576      0.142262      -12.2641       5.39152             0       5.90355      0.195538             0       23.8128      -14.2829             0       32.0636             0             0      0.190907   9.80193e-16      0.169972        102406        103219        227683    1.7959e-15
     0.038038       287.985       288.574      0.141444      -12.3838       5.07669             0       5.99337      0.181132             0       24.9492       -14.512             0       30.7117             0             0      0.188213   9.55124e-16      0.181682        102417        103220        227710   1.74997e-15
    0.0385385       288.052       288.569      0.143776      -12.3787       4.79371             0       6.09464      0.171627             0       26.4265      -14.7119             0       29.2802             0             0      0.186914   9.42601e-16      0.187332        102428        103222        227790   1.72702e-15
     0.039039       288.118       288.564      0.146343      -12.3493       4.50875             0       6.19648      0.162231             0       27.9189      -14.9068             0       27.8466             0             0       0.18569   9.30958e-16      0.192651        102438        103223        227873   1.70569e-15
    0.0395395       288.179       288.555      0.151674      -12.0323       4.20054             0       6.30507      0.154127             0       29.5909      -15.0436             0       26.3876             0             0      0.185363   9.29711e-16      0.194076        102447        103225        227993    1.7034e-15
      0.04004       288.237       288.546      0.157077      -11.6935       3.88894             0       6.41316      0.146081             0       31.2692      -15.1731             0       24.9276             0             0      0.185161   9.30058e-16      0.194951        102456        103226        228122   1.70404e-15
    0.0405405        288.26       288.535      0.163285      -11.1025       3.53845             0       6.51554      0.138702             0        33.021      -15.2187             0       23.4571             0             0       0.18641    9.4874e-16      0.189524        102463        103228        228345   1.73827e-15
     0.041041        288.28       288.523       0.16945      -10.5177       3.19107             0       6.61558      0.131486             0       34.7762      -15.2571             0       21.9852             0             0        0.1877   9.68093e-16      0.183913        102470        103230        228574   1.77373e-15
    0.0415415       288.265       288.511      0.175113      -10.0035       2.87842             0       6.68949        0.1261             0       36.5697      -15.2139             0       20.4979             0             0      0.189462   9.94977e-16      0.176252        102476        103232        228865   1.82298e-15
     0.042042       288.247       288.499      0.180582      -9.51784       2.57453             0       6.76024      0.120795             0       38.3474      -15.1563             0       19.0075             0             0      0.191162   1.02245e-15       0.16886        102481        103234        229158   1.87332e-15
    0.0425425       288.188       288.489      0.183935       -9.3438       2.36626             0        6.7966      0.116378             0       39.9523      -14.9421             0       17.4834             0             0      0.192186   1.05634e-15      0.164409        102485        103235        229479   1.93542e-15
     0.043043       288.128        288.48       0.18708      -9.18351       2.16112             0       6.83015      0.111527             0       41.4953      -14.6982             0       15.9545             0             0      0.193142   1.09144e-15      0.160251        102489        103237        229807   1.99972e-15
    0.0435435        288.06       288.474      0.188012      -9.16945        1.9892             0       6.83391      0.102065             0       42.3812      -14.1398             0        14.375             0             0      0.193383   1.13931e-15      0.159206        102493        103239        230207   2.08743e-15
     0.044044       287.994       288.469      0.188944      -9.15026       1.81657             0       6.83361     0.0917121             0       43.1951      -13.5476             0       12.7965             0             0      0.193498   1.18975e-15      0.158706        102497        103240        230611   2.17985e-15
    0.0445445       287.948       288.466      0.189893      -9.07789       1.63656             0       6.79132     0.0721379             0       43.2643      -12.6044             0       11.2282             0             0      0.192316   1.26692e-15      0.163844        102500        103242        231039   2.32123e-15
     0.045045       287.901       288.463      0.190754      -9.01017       1.45923             0       6.74258     0.0524436             0       43.3114      -11.6351             0        9.6694             0             0      0.191066   1.34451e-15      0.169279        102503        103244        231469    2.4634e-15
    0.0455455       287.856       288.457      0.190728      -8.98935       1.30889             0       6.62878     0.0315332             0       43.1346      -10.4021             0       8.20694             0             0      0.189124   1.42641e-15      0.177724        102506        103245        231913   2.61345e-15