#           y             T         TMean   TPrime2Mean           U_x           U_y           U_z       UMean_x       UMean_y       UMean_z UPrime2Mea... UPrime2Mea... UPrime2Mea... UPrime2Mea... UPrime2Mea... UPrime2Mea...            O2           H2O          C3H8             p         pMean   pPrime2Mean           CO2
  1.11022e-19       287.866       288.099      0.126209       25.4201    1.2308e-16             0       19.7582  -2.10968e-16             0       23.9848  -7.66459e-17             0   4.44017e-16             0             0      0.229751   8.36929e-18     0.0010816        102723        103195        219836   1.53341e-17
  0.000500501       287.872       288.101      0.128015       25.4389    -0.0987971             0       19.7609     0.0586759             0       24.0352    -0.0380292             0     0.0525242             0             0       0.22938    1.2917e-17    0.00269475        102723        103195        219785   2.36664e-17
     0.001001       287.879       288.103      0.129829       25.4578     -0.197619             0       19.7635      0.117352             0       24.0859    -0.0760439             0      0.105203             0             0      0.229006   1.74859e-17     0.0043209        102723        103195        219733   3.20375e-17
    0.0015015       287.911        288.11      0.136147       25.5018      -0.30876             0       19.7725      0.176093             0       24.2307     -0.106844             0      0.234776             0             0      0.227141   3.26025e-17     0.0124301        102723        103195        219560   5.97338e-17
     0.002002       287.943       288.117      0.142471       25.5458     -0.419975             0       19.7816      0.234834             0       24.3763     -0.137646             0      0.364764             0             0      0.225264   4.77638e-17     0.0205911        102724        103195        219386   8.75122e-17
    0.0025025       288.022        288.13      0.150361       25.6075     -0.549434             0       19.7967      0.293574             0       24.7083     -0.168997             0      0.597873             0             0      0.220419   7.40635e-17     0.0416567        102725        103194        219126   1.35698e-16
     0.003003       288.101       288.143      0.158233       25.6688     -0.678968             0       19.8119      0.352315             0       25.0413     -0.200266             0      0.831678             0             0      0.215559   1.00379e-16     0.0627848        102725        103194        218865   1.83913e-16
    0.0035035       288.191       288.162      0.162997       25.6785     -0.820939             0       19.8412      0.411388             0       25.5523     -0.218009             0       1.18087             0             0      0.208317   1.29279e-16     0.0942747        102725        103193        218584   2.36863e-16
     0.004004        288.28       288.181      0.167729       25.6868     -0.962691             0       19.8705      0.470475             0       26.0623      -0.23561             0       1.53104             0             0       0.20108   1.58113e-16      0.125739        102725        103193        218302   2.89692e-16
    0.0045045       288.276       288.193      0.168455       25.5185      -1.07734             0       19.8947      0.531447             0       26.4574     -0.235665             0        2.0013             0             0      0.194578   1.78784e-16      0.154009        102725        103192        217988   3.27565e-16
   0.00500501       288.271       288.205      0.169143       25.3481      -1.19229             0       19.9184      0.592437             0       26.8481     -0.235124             0       2.47246             0             0      0.188097   1.99397e-16      0.182186        102724        103192        217673   3.65332e-16
   0.00550551       288.203       288.211      0.166036       24.9762      -1.33591             0       19.9036      0.655213             0        26.794     -0.175626             0       3.03303             0             0      0.183742     2.143e-16      0.201123        102724        103191        217324   3.92638e-16
   0.00600601       288.136       288.216      0.162931        24.601      -1.48133             0       19.8876      0.718046             0       26.7327     -0.114193             0       3.59361             0             0      0.179384   2.29261e-16      0.220068        102724        103190        216975    4.2005e-16
   0.00650651       288.162       288.222      0.159962       23.9504      -1.77487             0       19.7824      0.785604             0       26.0719      0.106549             0        4.1541             0             0      0.174876   2.48969e-16       0.23967        102725        103189        216639   4.56158e-16
   0.00700701       288.188       288.229      0.157021       23.2903      -2.06834             0       19.6752       0.85325             0       25.4068      0.331587             0       4.71379             0             0      0.170363   2.68767e-16      0.259293        102725        103189        216301   4.92431e-16
   0.00750751       288.276       288.242      0.156032       21.9569      -2.35743             0       19.4245      0.927049             0       24.4419       0.85924             0       5.21767             0             0      0.165503   2.94885e-16      0.280422        102725        103188        215883   5.40283e-16
   0.00800801       288.362       288.255      0.155098       20.6188       -2.6441             0       19.1716       1.00077             0       23.4799       1.38883             0       5.72111             0             0      0.160658   3.21049e-16      0.301486        102725        103187        215463   5.88221e-16
   0.00850851       288.373       288.275      0.157566       18.9968      -2.78167             0       18.7784       1.06979             0        22.699       2.03756             0       6.19809             0             0      0.156721    3.5008e-16      0.318606        102725        103187        214920   6.41412e-16
   0.00900901       288.384       288.294      0.160105       17.3872      -2.92053             0       18.3837       1.13825             0       21.9261       2.67817             0       6.67721             0             0      0.152775   3.79145e-16      0.335759        102725        103186        214377   6.94665e-16
   0.00950951       288.355       288.311      0.166514       16.4474      -3.12901             0       17.9004       1.17668             0       21.5861       2.87578             0       7.27275             0             0       0.14841   4.10035e-16      0.354739        102725        103185        213875   7.51261e-16
      0.01001       288.326       288.327      0.172901       15.5147      -3.33689             0       17.4172       1.21449             0       21.2696       3.06245             0       7.87268             0             0      0.144057    4.4088e-16      0.373667        102724        103184        213374   8.07774e-16
    0.0105105       288.314       288.332      0.178148       14.9288      -3.51487             0       16.9339       1.22195             0       22.1091       2.71319             0       8.68681             0             0      0.140273   4.69468e-16      0.390117        102724        103183        212963   8.60153e-16
     0.011011       288.303       288.336      0.183363        14.341      -3.69165             0        16.451       1.22915             0       22.9913       2.36111             0       9.50351             0             0      0.136539   4.97888e-16      0.406351        102724        103181        212557   9.12223e-16
    0.0115115       288.295       288.324      0.187122         13.67      -3.81485             0       15.9854       1.22473             0       25.7741       1.88408             0       10.4343             0             0      0.135002   5.18817e-16      0.413035        102724        103180        212354   9.50569e-16
     0.012012       288.288       288.312      0.191025       13.0007      -3.93849             0       15.5195       1.22038             0       28.5949       1.40943             0       11.3659             0             0      0.133464   5.39745e-16      0.419723        102724        103179        212159   9.88914e-16
    0.0125125       288.323       288.293      0.200742       12.4053      -4.08052             0       15.0385       1.21895             0       32.9611       1.03156             0       12.3327             0             0      0.131885   5.60645e-16      0.426585        102724        103177        212278   1.02721e-15
     0.013013       288.359       288.275      0.210689       11.8147      -4.22118             0       14.5591       1.21707             0        37.332      0.650981             0       13.3051             0             0      0.130279    5.8148e-16      0.433569        102724        103175        212405   1.06538e-15
    0.0135135       288.438       288.265      0.229287       11.4029       -4.3108             0        14.136       1.19837             0       41.8767      0.169057             0       14.4842             0             0      0.127627   5.99864e-16      0.445102        102724        103173        212822   1.09906e-15
     0.014014       288.517       288.256       0.24793       10.9979      -4.39961             0       13.7157       1.17911             0       46.3915     -0.317677             0        15.672             0             0       0.12499   6.17888e-16      0.456566        102724        103171        213246   1.13209e-15
    0.0145145       288.583       288.257      0.268134       10.8301      -4.46065             0       13.3904       1.14057             0       49.8695     -0.971404             0       17.1608             0             0      0.122899    6.2343e-16      0.465655        102726        103169        213910   1.14224e-15
     0.015015       288.648       288.258      0.288227       10.6642      -4.52016             0       13.0661       1.10205             0       53.3058      -1.62449             0       18.6517             0             0      0.120848   6.28809e-16      0.474573        102727        103167        214581   1.15209e-15
    0.0155155       288.684       288.262      0.304746       10.5604      -4.53074             0       12.7756       1.06406             0       55.3911      -2.25699             0       20.2125             0             0      0.120061   6.28894e-16      0.477996        102729        103165        215499   1.15225e-15
     0.016016       288.719       288.267      0.321142       10.4506      -4.53846             0       12.4857       1.02667             0       57.4389      -2.88505             0       21.7714             0             0      0.119327   6.29027e-16      0.481188        102731        103162        216424   1.15249e-15
    0.0165165       288.741       288.274      0.333789       10.1587      -4.46009             0       12.2123       1.00737             0       58.3518      -3.37904             0       23.2726             0             0      0.120199   6.30635e-16      0.477394        102733        103160        217581   1.15544e-15
     0.017017       288.762       288.282      0.346305       9.86021      -4.37479             0       11.9398      0.988838             0       59.2407       -3.8701             0       24.7733             0             0      0.121123     6.323e-16      0.473378        102735        103158        218743   1.15849e-15
    0.0175175       288.771       288.292      0.355102       9.37722      -4.09277             0       11.6917      0.992008             0       59.4494      -4.27805             0       26.2584             0             0      0.123497   6.35581e-16      0.463057        102737        103156        220046    1.1645e-15
     0.018018        288.78       288.302      0.363745       8.88935      -3.80201             0       11.4438      0.995965             0       59.6349      -4.68554             0        27.745             0             0      0.125894   6.38857e-16      0.452633        102739        103155        221351    1.1705e-15
    0.0185185       288.776       288.313       0.36826       8.27063      -3.27742             0       11.2031       1.02097             0       59.1996      -5.08089             0       29.2718             0             0      0.128931   6.41983e-16      0.439433        102740        103153        222739   1.17623e-15
     0.019019       288.771       288.325      0.372617       7.64932      -2.74757             0       10.9617       1.04674             0        58.729      -5.47411             0       30.7988             0             0      0.131979    6.4505e-16      0.426179        102742        103151        224126   1.18185e-15
    0.0195195       288.758       288.335      0.372979       6.96256      -2.08455             0       10.7055       1.09163             0       57.3648      -5.81335             0       32.3284             0             0      0.135337    6.4661e-16      0.411578        102743        103149        225494   1.18471e-15
      0.02002       288.744       288.345      0.373193       6.28173      -1.42362             0       10.4487       1.13749             0       55.9686      -6.14731             0       33.8559             0             0      0.138697   6.48135e-16      0.396971        102744        103148        226860    1.1875e-15
    0.0205205       288.721       288.353      0.369825        5.7429     -0.812826             0       10.1776       1.20668             0       53.8049      -6.35453             0       35.3298             0             0       0.14209   6.48843e-16      0.382218        102745        103146        228157    1.1888e-15
     0.021021       288.698       288.361      0.366474        5.2152      -0.20951             0       9.90692       1.27699             0       51.6331        -6.553             0       36.8016             0             0      0.145445    6.4967e-16      0.367631        102746        103144        229449   1.19032e-15
    0.0215215       288.675        288.37      0.363518       4.94139      0.223154             0       9.64529       1.37292             0       49.2767       -6.5515             0       38.2254             0             0      0.147932   6.53204e-16      0.356819        102747        103143        230613   1.19679e-15
     0.022022       288.653       288.379      0.360741       4.68074      0.645457             0       9.38528       1.47008             0       46.9282       -6.5398             0       39.6478             0             0      0.150368   6.56957e-16      0.346226        102748        103142        231770   1.20367e-15
    0.0225225       288.638       288.387      0.361819       4.70623      0.842628             0       9.16071       1.59404             0       44.7521      -6.30644             0       41.0381             0             0      0.151715   6.65483e-16      0.340369        102749        103141        232765   1.21929e-15
     0.023023       288.623       288.394       0.36295       4.74256       1.02966             0       8.93818       1.71913             0       42.5763      -6.06328             0       42.4292             0             0      0.153008   6.74138e-16      0.334748        102751        103140        233752   1.23515e-15
    0.0235235       288.617       288.399      0.365169       5.00372       1.00643             0       8.75811       1.86775             0       40.4057      -5.61696             0       43.8381             0             0       0.15317   6.85471e-16      0.334041        102752        103139        234552   1.25591e-15
     0.024024       288.613       288.402      0.367244       5.26764       0.97744             0        8.5795       2.01755             0       38.2273      -5.15737             0       45.2485             0             0      0.153263   6.96715e-16      0.333639        102754        103138        235343   1.27651e-15
    0.0245245       288.628       288.403       0.36649       5.58637      0.834334             0       8.42983        2.1908             0       35.8934      -4.43467             0       46.6908             0             0      0.151967   7.06195e-16      0.339274        102755        103138        235927   1.29388e-15
     0.025025       288.644       288.402      0.365605       5.89716      0.693182             0       8.28116       2.36531             0       33.5639      -3.69258             0       48.1349             0             0      0.150643    7.1527e-16      0.345031        102756        103137        236495   1.31051e-15
    0.0255255       288.672       288.399      0.362229       6.05694      0.589154             0       8.15137       2.56384             0       31.3155      -2.58211             0       49.6156             0             0      0.148784   7.16636e-16      0.353115        102758        103137        236746   1.31301e-15
     0.026026       288.699       288.395      0.358855        6.2071       0.48783             0       8.02256       2.76353             0       29.0979      -1.44918             0       51.1004             0             0      0.147041   7.17203e-16      0.360691        102759        103136        236975   1.31405e-15
    0.0265265       288.693       288.387      0.355524       6.18189       0.43581             0       7.91165       2.98435             0       27.4414     0.0930208             0       52.6588             0             0      0.147425   7.03186e-16      0.359022        102761        103136        236815   1.28837e-15
     0.027027       288.682       288.379      0.352205         6.157      0.375238             0       7.80115         3.206             0       25.8363       1.65666             0       54.2195             0             0      0.148063   6.88438e-16      0.356247        102762        103136        236633   1.26135e-15
    0.0275275       288.593       288.369      0.349083       6.13765      0.164851             0       7.69794       3.44206             0       25.1306       3.59574             0       55.8177             0             0      0.153152   6.60898e-16      0.334124        102764        103136        236068   1.21089e-15
     0.028028       288.502        288.36       0.34588       6.12437    -0.0584716             0       7.59421       3.67851             0       24.4763       5.54846             0       57.4069             0             0      0.158397   6.33227e-16      0.311317        102765        103136        235481   1.16019e-15
    0.0285285       288.365       288.351      0.341307       6.21348     -0.499848             0       7.48161       3.92168             0       24.6876       7.73083             0       58.8425             0             0      0.166293   6.03342e-16      0.276989        102766        103136        234525   1.10544e-15
     0.029029        288.23       288.343      0.336613       6.30129     -0.942631             0       7.36812       4.16495             0       24.9371        9.9129             0       60.2575             0             0      0.174074   5.74151e-16      0.243158        102766        103137        233556   1.05195e-15
    0.0295295       288.128       288.337      0.329958       6.36798      -1.40826             0       7.24001       4.40998             0       25.8071       12.0901             0       61.3396             0             0          0.18   5.56216e-16       0.21739        102766        103137        232368   1.01909e-15
      0.03003       288.028       288.331      0.323266       6.42524      -1.86429             0       7.11148       4.65499             0       26.7034       14.2537             0       62.3995             0             0      0.185727   5.39372e-16      0.192493        102765        103138        231172    9.8823e-16
    0.0305305       287.981       288.327      0.315999       6.33477       -2.1701             0       6.97624       4.89988             0       28.0115       16.2033             0       63.1099             0             0      0.188319   5.39601e-16      0.181223        102765        103139        229844   9.88649e-16
     0.031031       287.934       288.324      0.308756       6.23464      -2.46358             0       6.84114       5.14455             0       29.3411       18.1314             0       63.8032             0             0      0.190813   5.40832e-16      0.170378        102764        103140        228515   9.90905e-16
    0.0315315       287.908        288.32      0.301875       5.98829      -2.57059             0        6.7081       5.38613             0        30.995       19.7342             0       64.2359             0             0      0.191826   5.57221e-16      0.165974        102763        103141        227178   1.02093e-15
     0.032032       287.882       288.317      0.295083       5.73651      -2.66823             0       6.57529       5.62703             0       32.6695        21.312             0       64.6555             0             0       0.19279   5.74323e-16      0.161783        102761        103142        225850   1.05227e-15
    0.0325325       287.865       288.312      0.289605       5.40517      -2.62891             0       6.44582       5.85802             0       34.6446       22.5237             0        64.884             0             0      0.193041    6.0186e-16      0.160692        102758        103144        224654   1.10272e-15
     0.033033       287.849       288.307      0.284337       5.07359      -2.58511             0       6.31629       6.08759             0       36.6349       23.7065             0       65.0976             0             0      0.193255   6.30036e-16      0.159762        102756        103146        223470   1.15434e-15
    0.0335335       287.842       288.302      0.282035       4.73849      -2.47805             0       6.18599       6.29709             0       38.8406       24.4784             0       65.1027             0             0      0.192947    6.6726e-16      0.161101        102753        103147        222457   1.22255e-15
     0.034034       287.836       288.296      0.279971       4.40643      -2.37031             0       6.05512       6.50428             0       41.0497       25.2149             0       65.0857             0             0      0.192618    7.0436e-16      0.162532        102750        103149        221459   1.29052e-15
    0.0345345        287.84        288.29      0.281165       4.11621      -2.25342             0       5.91638       6.67991             0       43.3055       25.4675             0       64.7657             0             0      0.192002   7.39748e-16      0.165209        102747        103151        220682   1.35536e-15
     0.035035       287.844       288.284      0.282491       3.83055      -2.13732             0       5.77623       6.85228             0       45.5532       25.6799             0       64.4155             0             0      0.191371   7.74839e-16      0.167952        102743        103153        219923   1.41965e-15
    0.0355355       287.858       288.279      0.285568       3.60544      -2.03184             0       5.61742       6.98121             0       47.6937       25.3586             0       63.6636             0             0      0.190539   8.05976e-16      0.171569        102739        103156        219421    1.4767e-15
     0.036036       287.872       288.275      0.288572       3.38438      -1.92628             0       5.45616       7.10603             0       49.8208       24.9962             0       62.8756             0             0      0.189691   8.37279e-16      0.175256        102736        103159        218936   1.53405e-15
    0.0365365       287.895       288.273      0.290635       3.21544      -1.81965             0       5.26346        7.1779             0        51.777       24.1054             0       61.6229             0             0      0.188632    8.7072e-16       0.17986        102732        103162        218674   1.59532e-15
     0.037037       287.919       288.271      0.292552       3.04971      -1.71147             0       5.06748       7.24515             0       53.7195        23.177             0       60.3311             0             0      0.187575   9.03822e-16      0.184457        102728        103165        218426   1.65597e-15
    0.0375375       287.947        288.27       0.29263       2.92398      -1.58401             0       4.83042       7.25451             0       55.4901       21.7783             0       58.5514             0             0      0.186539   9.32668e-16       0.18896        102725        103168        218359   1.70882e-15
     0.038038       287.975        288.27      0.292626       2.80132      -1.45447             0       4.58937       7.25918             0       57.2524       20.3522             0       56.7336             0             0       0.18552    9.6098e-16      0.193393        102721        103172        218307   1.76069e-15
    0.0385385       288.003        288.27      0.291619       2.71597       -1.2998             0       4.29978        7.2067             0       58.9127       18.5937             0       54.4537             0             0      0.184696   9.82797e-16      0.196972        102718        103176        218437   1.80067e-15
     0.039039       288.031        288.27      0.290418       2.63515      -1.14425             0        4.0059       7.14961             0       60.5697       16.8216             0       52.1422             0             0      0.183888   1.00417e-15      0.200485        102714        103180        218581   1.83983e-15
    0.0395395       288.056        288.27       0.28693       2.60783     -0.978462             0       3.66137       7.03794             0       62.1889       14.8895             0        49.458             0             0      0.183259    1.0203e-15      0.203221        102711        103184        218886   1.86938e-15
      0.04004       288.079        288.27      0.283106       2.58702     -0.814448             0       3.31366        6.9215             0       63.7878       12.9504             0       46.7542             0             0      0.182642   1.03616e-15      0.205905        102708        103188        219201   1.89844e-15
    0.0405405       288.091       288.273      0.275431       2.64109     -0.670874             0       2.92947       6.75033             0       65.1542       10.9305             0       43.8249             0             0       0.18216    1.0489e-15      0.208001        102704        103193        219630   1.92177e-15
     0.041041       288.102       288.275      0.267568       2.70215     -0.531876             0       2.54451       6.57434             0       66.4597       8.90472             0       40.8833             0             0      0.181692   1.06137e-15      0.210033        102701        103198        220063   1.94462e-15
    0.0415415       288.095        288.28      0.257607       2.84152     -0.444109             0        2.1509       6.34447             0       67.0822       6.81385             0       37.8036             0             0      0.181389   1.07084e-15      0.211351        102698        103203        220524   1.96198e-15
     0.042042       288.087       288.285      0.247617        2.9869     -0.361742             0       1.75823       6.11012             0        67.628       4.72621             0       34.7156             0             0      0.181104    1.0801e-15      0.212593        102696        103208        220986   1.97894e-15
    0.0425425       288.063       288.292      0.237298       3.19793     -0.338256             0       1.37578       5.82703             0       67.3361       2.67368             0       31.5374             0             0       0.18101   1.08701e-15         0.213        102693        103213        221452    1.9916e-15
     0.043043       288.039         288.3      0.226888       3.41439     -0.318919             0      0.993834       5.54053             0       67.0069      0.638837             0       28.3612             0             0      0.180937    1.0937e-15      0.213319        102691        103218        221921   2.00387e-15
    0.0435435       288.015       288.312      0.215509       3.68852     -0.343677             0      0.617291       5.21769             0       66.2814      -1.20809             0       25.2067             0             0      0.181079   1.09819e-15      0.212702        102689        103222        222425   2.01209e-15
     0.044044       287.993       288.325      0.204099        3.9684     -0.369513             0      0.242415       4.89172             0       65.5181       -3.0116             0       22.0679             0             0      0.181237   1.10264e-15      0.212012        102688        103227        222931   2.02024e-15
    0.0445445       287.995       288.342      0.192372       4.30793     -0.406514             0     -0.115186       4.53337             0       64.3625      -4.36512             0       19.0912             0             0      0.181568   1.10674e-15      0.210574        102687        103232        223462   2.02775e-15
     0.045045       288.002       288.359         0.181       4.65034     -0.441145             0      -0.46781       4.17116             0       63.1242      -5.64745             0       16.1396             0             0      0.181901   1.11099e-15      0.209128        102686        103236        223995   2.03554e-15
    0.0455455       288.048       288.373      0.173223       5.02189     -0.451802             0     -0.770118       3.76988             0       61.0499      -6.20999             0       13.4412             0             0      0.182253   1.11673e-15      0.207596        102686        103241        224557   2.04606e-15