#           y             T         TMean   TPrime2Mean           U_x           U_y           U_z       UMean_x       UMean_y       UMean_z UPrime2Mea... UPrime2Mea... UPrime2Mea... UPrime2Mea... UPrime2Mea... UPrime2Mea...            O2           H2O          C3H8             p         pMean   pPrime2Mean           CO2
            0       287.354       288.363      0.225097       18.0608             0             0       13.4179             0             0       25.3332             0             0             0             0             0      0.228728   9.17408e-17    0.00552882        102486        103242        229886   1.68086e-16
  0.000500501       287.382       288.369      0.226604       18.0906     0.0460155             0       13.4308    0.00885316             0       25.3495    -0.0312127             0      0.071388             0             0      0.228293   1.04837e-16    0.00742133        102486        103242        229894   1.92081e-16
     0.001001        287.41       288.374      0.228116       18.1206     0.0920418             0       13.4438     0.0177085             0       25.3659    -0.0624095             0      0.142962             0             0      0.227856   1.17981e-16    0.00932252        102486        103242        229903   2.16162e-16
    0.0015015       287.466       288.386      0.232285       18.2108      0.143426             0       13.4725     0.0276294             0       25.4821    -0.0856945             0      0.307208             0             0      0.226422   1.54766e-16     0.0155553        102485        103242        229898    2.8356e-16
     0.002002       287.523       288.397       0.23647       18.3013      0.194814             0       13.5013     0.0375455             0        25.599     -0.109067             0      0.471901             0             0      0.224984   1.91617e-16     0.0218082        102485        103242        229892   3.51078e-16
    0.0025025       287.592       288.407        0.2444       18.4531      0.247199             0       13.5403     0.0462736             0       25.9027     -0.154096             0      0.748091             0             0       0.22239    2.4497e-16     0.0330872        102484        103242        229850   4.48831e-16
     0.003003       287.661       288.416      0.252322       18.6053      0.299603             0       13.5794     0.0549748             0       26.2076     -0.199562             0       1.02507             0             0      0.219794   2.98301e-16     0.0443728        102483        103241        229808   5.46544e-16
    0.0035035       287.716       288.423      0.258921       18.8231      0.355209             0       13.6356     0.0592275             0       26.7102      -0.31718             0       1.43334             0             0      0.216944   3.47991e-16      0.056767        102483        103241        229699   6.37585e-16
     0.004004        287.77        288.43      0.265423       19.0409      0.410837             0       13.6918     0.0634442             0       27.2136      -0.43553             0       1.84269             0             0      0.214096   3.97624e-16     0.0691491        102482        103240        229589   7.28521e-16
    0.0045045       287.789       288.437      0.259923       19.2732      0.469154             0       13.7542     0.0631879             0       27.8014     -0.644735             0       2.38628             0             0      0.211591   4.40191e-16     0.0800379        102481        103240        229409   8.06512e-16
   0.00500501       287.808       288.444      0.254339       19.5042      0.527409             0       13.8163     0.0629271             0        28.387     -0.854257             0        2.9308             0             0      0.209083   4.82916e-16     0.0909431        102480        103239        229228   8.84792e-16
   0.00550551       287.829       288.453      0.240325       19.6191      0.579395             0       13.8522      0.062212             0       28.7575       -1.0953             0       3.56701             0             0      0.206203   5.41288e-16      0.103467        102478        103238        229013    9.9174e-16
   0.00600601       287.849       288.462      0.226338       19.7317      0.631091             0       13.8874     0.0615475             0       29.1206      -1.33536             0       4.20337             0             0      0.203323   5.99795e-16      0.115985        102477        103237        228797   1.09894e-15
   0.00650651       287.874       288.471      0.214504       19.6529      0.658935             0       13.8622     0.0650373             0       28.8708      -1.49554             0       4.85315             0             0      0.200567   6.69414e-16      0.127971        102475        103237        228539   1.22649e-15
   0.00700701       287.898        288.48      0.202722       19.5717      0.686665             0        13.836     0.0686102             0       28.6102      -1.65377             0       5.50229             0             0      0.197826   7.38842e-16      0.139888        102474        103236        228280    1.3537e-15
   0.00750751       287.903       288.489      0.194638       19.3244      0.706355             0       13.7384     0.0780346             0       27.5896      -1.67428             0        6.1061             0             0      0.196205   7.94874e-16      0.146933        102472        103235        227985   1.45636e-15
   0.00800801       287.908       288.498      0.186585       19.0745      0.725796             0         13.64     0.0875088             0       26.5615      -1.69354             0       6.70924             0             0        0.1946   8.50512e-16      0.153913        102470        103234        227691    1.5583e-15
   0.00850851       287.895       288.508      0.180528       18.6646      0.729883             0       13.4919      0.100051             0       25.0718      -1.63599             0       7.27019             0             0      0.193915   8.81893e-16       0.15689        102469        103233        227386   1.61579e-15
   0.00900901       287.881       288.519      0.174497       18.2526      0.733059             0       13.3435      0.112571             0       23.5808      -1.57877             0       7.83086             0             0      0.193238   9.12894e-16      0.159837        102467        103232        227081   1.67259e-15
   0.00950951       287.863        288.53      0.169918       17.7227      0.686503             0       13.1739      0.123872             0       22.0162      -1.53933             0       8.37673             0             0      0.192927   9.23163e-16      0.161186        102466        103231        226775   1.69141e-15
      0.01001       287.844       288.542      0.165376       17.1943      0.639234             0       13.0041      0.135139             0       20.4528      -1.50037             0       8.92214             0             0      0.192614   9.33409e-16       0.16255        102465        103230        226468   1.71018e-15
    0.0105105       287.827       288.555       0.16264       16.7368      0.557099             0       12.8216      0.144746             0       18.9466      -1.48557             0       9.44569             0             0      0.192127   9.42546e-16      0.164665        102465        103229        226162   1.72692e-15
     0.011011        287.81       288.568      0.159993       16.2833       0.47504             0       12.6387      0.154382             0       17.4401      -1.47002             0        9.9679             0             0      0.191634   9.51701e-16      0.166807        102465        103228        225856   1.74369e-15
    0.0115115       287.807       288.579       0.16128        16.013      0.396384             0       12.4344      0.165372             0        15.923      -1.42099             0        10.431             0             0      0.190876   9.61645e-16      0.170103        102465        103227        225545   1.76191e-15
     0.012012       287.805        288.59      0.162626       15.7477      0.319239             0       12.2296      0.176397             0       14.4059      -1.37101             0       10.8924             0             0      0.190111   9.71692e-16      0.173433        102465        103227        225234   1.78032e-15
    0.0125125       287.842         288.6      0.166413       15.6881      0.303541             0       12.0034      0.188872             0       12.8904      -1.28175             0       11.2826             0             0      0.189036   9.85919e-16      0.178106        102465        103226        224947   1.80639e-15
     0.013013       287.879       288.609      0.170145       15.6333      0.291421             0       11.7771      0.201316             0       11.3804      -1.19272             0       11.6715             0             0      0.187955   1.00019e-15      0.182803        102465        103225        224660   1.83253e-15
    0.0135135       287.963       288.617      0.171816       15.7535      0.413369             0       11.5489      0.212612             0       10.0779      -1.11218             0       12.0099             0             0       0.18667   1.01615e-15      0.188393        102465        103225        224382   1.86177e-15
     0.014014       288.047       288.625      0.173389       15.8722      0.535857             0        11.321      0.223901             0       8.78672      -1.03178             0       12.3459             0             0      0.185391   1.03166e-15      0.193953        102465        103224        224104    1.8902e-15
    0.0145145       288.147       288.632      0.171521       15.9334      0.677105             0       11.1024       0.23491             0       7.88751     -0.956634             0        12.601             0             0      0.184342   1.03184e-15      0.198511        102464        103223        223840   1.89052e-15
     0.015015       288.247       288.639      0.169595       15.9864      0.813343             0       10.8837       0.24608             0        7.0014     -0.880333             0       12.8506             0             0      0.183298    1.0318e-15      0.203051        102463        103223        223577   1.89044e-15
    0.0155155       288.328       288.646      0.165797       15.7755      0.787614             0        10.662      0.262446             0       6.53912     -0.766776             0       12.9212             0             0      0.182393    1.0248e-15      0.206987        102461        103223        223348   1.87763e-15
     0.016016       288.409       288.653      0.162029       15.5562      0.756335             0       10.4398      0.279036             0       6.09194     -0.653685             0       12.9849             0             0      0.181483     1.018e-15      0.210943        102460        103222        223120   1.86517e-15
    0.0165165       288.474       288.659      0.159143       15.0834      0.557188             0       10.2057      0.302436             0       6.10133     -0.554716             0       12.8358             0             0      0.180438   1.01717e-15      0.215487        102459        103222        222919   1.86365e-15
     0.017017       288.539       288.664      0.156335       14.6061      0.354745             0       9.97146      0.325877             0       6.12864     -0.460945             0       12.6823             0             0      0.179385   1.01666e-15      0.220065        102457        103222        222717   1.86271e-15
    0.0175175       288.598       288.668      0.155739       13.9996     0.0586386             0         9.735      0.350478             0       6.66474     -0.514879             0       12.3994             0             0      0.178104   1.02516e-15      0.225634        102457        103222        222521   1.87828e-15
     0.018018       288.656       288.671      0.155233       13.3915     -0.237121             0       9.49875      0.374938             0       7.21737     -0.576309             0       12.1145             0             0      0.176834   1.03365e-15      0.231155        102456        103222        222325   1.89384e-15
    0.0185185       288.684       288.672      0.157141       12.7396     -0.523598             0        9.2686      0.395623             0       8.21257     -0.838454             0       11.7784             0             0      0.175857   1.04204e-15      0.235404        102456        103222        222132   1.90922e-15
     0.019019       288.709       288.673      0.159135        12.088      -0.80654             0       9.03871      0.416174             0       9.21806       -1.1053             0       11.4409             0             0      0.174908   1.05019e-15       0.23953        102455        103223        221940   1.92415e-15
    0.0195195       288.682       288.673      0.163298       11.4464     -0.999995             0       8.81579      0.433342             0       10.4841      -1.49123             0         11.07             0             0      0.174673    1.0521e-15      0.240553        102456        103223        221755   1.92764e-15
      0.02002       288.654       288.673      0.167551       10.8081      -1.18788             0        8.5931      0.450515             0       11.7532      -1.87536             0        10.698             0             0      0.174466   1.05375e-15      0.241451        102457        103223        221568   1.93066e-15
    0.0205205       288.581       288.673      0.173978       10.2509       -1.2421             0       8.37603      0.467827             0       13.0949      -2.21654             0       10.3001             0             0      0.174941   1.04938e-15      0.239388        102459        103223        221349   1.92266e-15
     0.021021       288.508       288.673      0.180539       9.69965      -1.28912             0       8.15959      0.485404             0       14.4289      -2.55081             0       9.90094             0             0      0.175442   1.04486e-15      0.237208        102461        103224        221130   1.91437e-15
    0.0215215       288.413       288.673      0.190141       9.28554      -1.17207             0       7.95777       0.50901             0       15.5874      -2.72741             0       9.47069             0             0      0.176553   1.03666e-15       0.23238        102463        103224        220899   1.89935e-15
     0.022022       288.319       288.674      0.199909       8.87977      -1.04782             0       7.75743      0.532645             0       16.7256      -2.89267             0       9.04076             0             0       0.17768   1.02846e-15      0.227477        102466        103224        220669   1.88433e-15
    0.0225225       288.224       288.677      0.213281       8.65541     -0.767393             0        7.5894      0.556889             0       17.4248      -2.81168             0       8.61801             0             0      0.179186   1.02028e-15       0.22093        102469        103224        220465   1.86935e-15
     0.023023        288.13       288.679      0.226652       8.43921     -0.482861             0       7.42265      0.581404             0       18.1095      -2.72365             0       8.19839             0             0      0.180703   1.01249e-15      0.214336        102472        103225        220264   1.85507e-15
    0.0235235       288.044       288.681          0.24        8.3923      -0.11321             0       7.28267      0.611552             0       18.4923      -2.48954             0       7.84389             0             0      0.182444    1.0127e-15      0.206764        102475        103225        220123   1.85545e-15
     0.024024        287.96       288.683       0.25319       8.35078       0.25759             0       7.14352      0.642038             0        18.869      -2.25105             0        7.4931             0             0      0.184188   1.01362e-15      0.199181        102477        103225        219985   1.85714e-15
    0.0245245       287.898       288.684       0.26323       8.41619      0.651167             0       7.02075      0.679247             0       19.1263       -1.9257             0       7.21587             0             0      0.185975   1.02867e-15      0.191414        102478        103225        219921   1.88472e-15
     0.025025       287.837       288.686      0.273149       8.48486        1.0445             0       6.89847      0.716599             0       19.3851      -1.59601             0       6.94229             0             0      0.187726   1.04455e-15      0.183798        102480        103225        219861    1.9138e-15
    0.0255255       287.812       288.692      0.280763       8.61523       1.43314             0       6.78545       0.75667             0       19.6708      -1.18385             0       6.73804             0             0      0.188814    1.0761e-15       0.17907        102481        103225        219895   1.97162e-15
     0.026026       287.788       288.698      0.288202       8.74679       1.81974             0       6.67237      0.797313             0       19.9758     -0.778601             0       6.53984             0             0      0.189859   1.10793e-15      0.174527        102481        103224        219934   2.02994e-15
    0.0265265       287.787       288.705      0.292437       8.89991       2.16912             0       6.55812        0.8484             0       20.6314      -0.49952             0         6.452             0             0       0.19013   1.14487e-15      0.173347        102482        103224        220084   2.09762e-15
     0.027027       287.787       288.711      0.296351        9.0524       2.51502             0       6.44448       0.89968             0          21.3     -0.231524             0       6.37277             0             0      0.190381   1.18184e-15      0.172255        102482        103224        220240   2.16535e-15
    0.0275275       287.797       288.714      0.294653       9.19377       2.80007             0       6.34148      0.954352             0       22.1968     -0.157731             0       6.44447             0             0      0.190275   1.21939e-15      0.172719        102481        103224        220497   2.23414e-15
     0.028028       287.807       288.716      0.292589       9.33435       3.08261             0       6.24069       1.00852             0       23.0718    -0.0889092             0       6.52354             0             0      0.190146   1.25767e-15      0.173277        102481        103223        220760   2.30428e-15
    0.0285285       287.828       288.713      0.284366       9.46155       3.32285             0       6.17718        1.0541             0       23.5782     -0.103887             0       6.72676             0             0      0.189654   1.30829e-15      0.175415        102480        103223        221114   2.39704e-15
     0.029029        287.85       288.709      0.275975       9.58807       3.56369             0         6.117        1.0987             0       24.0322     -0.116257             0        6.9349             0             0      0.189151   1.35898e-15      0.177603        102480        103222        221475   2.48991e-15
    0.0295295       287.877       288.702      0.264866       9.70346       3.81422             0       6.11069       1.12713             0       23.6339     -0.086256             0       7.22306             0             0      0.188465   1.41069e-15      0.180589        102479        103221        221933   2.58464e-15
      0.03003       287.905       288.695      0.253762       9.81518       4.06684             0       6.10759       1.15453             0       23.1818    -0.0515233             0       7.51369             0             0       0.18778   1.46181e-15      0.183566        102478        103221        222396   2.67831e-15
    0.0305305       287.931       288.689      0.242734       9.86949       4.35209             0       6.15462       1.16566             0       21.8856     0.0573423             0       7.84307             0             0      0.187128   1.50388e-15      0.186402        102477        103220        222929   2.75538e-15
     0.031031       287.958       288.684      0.231691       9.91526       4.63716             0       6.20385       1.17598             0       20.5609      0.167164             0       8.17332             0             0      0.186474   1.54587e-15      0.189243        102475        103219        223467   2.83232e-15
    0.0315315       287.987        288.68      0.220406       9.83185        4.9194             0       6.28626       1.17414             0       18.8061      0.291444             0       8.51668             0             0      0.185805   1.58675e-15      0.192153        102474        103218        224060   2.90722e-15
     0.032032       288.017       288.677      0.209114       9.73794       5.19854             0       6.36973       1.17182             0       17.0533      0.410994             0       8.85975             0             0      0.185139   1.62732e-15      0.195046        102472        103217        224655   2.98155e-15
    0.0325325       288.048       288.675      0.197719       9.49039       5.43239             0       6.46876       1.16235             0       15.3291      0.461358             0       9.19879             0             0      0.184528   1.66326e-15      0.197702        102471        103217        225276    3.0474e-15
     0.033033       288.079       288.674      0.186407       9.23381       5.66229             0       6.56811       1.15264             0        13.625      0.503902             0        9.5365             0             0      0.183926    1.6988e-15      0.200324        102469        103216        225895   3.11251e-15
    0.0335335       288.106       288.673       0.17627       8.84944       5.83628             0       6.67188       1.13961             0       12.2047      0.435781             0       9.85529             0             0      0.183435   1.72861e-15      0.202458        102468        103216        226477   3.16714e-15
     0.034034       288.132       288.672       0.16627       8.45839       6.00722             0       6.77571       1.12635             0       10.8082       0.35993             0       10.1715             0             0      0.182945   1.75819e-15      0.204585        102466        103215        227057   3.22133e-15
    0.0345345       288.156       288.673      0.158161       7.97577       6.13634             0        6.8803       1.10999             0       9.73919      0.178145             0        10.452             0             0      0.182479   1.78449e-15      0.206614        102465        103215        227607   3.26951e-15
     0.035035       288.178       288.673       0.15018       7.48808       6.26327             0       6.98549       1.09347             0       8.68814    -0.0109403             0       10.7279             0             0      0.182025   1.80989e-15      0.208585        102464        103215        228155   3.31606e-15
    0.0355355       288.189       288.673      0.143895       6.93298       6.36125             0       7.09858        1.0749             0       7.87577     -0.297022             0       10.9429             0             0      0.181749   1.82348e-15      0.209787        102463        103215        228655   3.34095e-15
     0.036036       288.199       288.673      0.137705       6.37356        6.4574             0       7.21264       1.05628             0       7.08281     -0.588908             0        11.149             0             0      0.181488   1.83612e-15      0.210921        102462        103215        229146   3.36411e-15
    0.0365365       288.198       288.673      0.132726        5.7586       6.53002             0       7.33909       1.03708             0          6.54     -0.955604             0       11.2418             0             0      0.181427   1.83656e-15      0.211188        102462        103215        229534   3.36493e-15
     0.037037       288.196       288.673      0.127809       5.13981       6.60061             0       7.46566       1.01767             0        6.0285      -1.32435             0       11.3219             0             0      0.181374   1.83647e-15      0.211416        102461        103215        229915   3.36475e-15
    0.0375375       288.188       288.674      0.123673       4.47315       6.64571             0        7.5937       0.99554             0       5.90872      -1.71881             0       11.2436             0             0      0.181431   1.82953e-15      0.211169        102461        103215        230215   3.35204e-15
     0.038038        288.18       288.675      0.119582       3.80167       6.68949             0       7.72108      0.973202             0       5.82516      -2.11109             0       11.1516             0             0      0.181498   1.82179e-15      0.210879        102461        103216        230509   3.33786e-15
    0.0385385       288.164       288.676      0.116038       3.07161       6.71717             0       7.84049      0.948313             0        6.1819      -2.47694             0       10.8945             0             0      0.181687   1.80439e-15      0.210057        102462        103217        230724   3.30598e-15
     0.039039       288.148       288.677      0.112525       2.33891       6.74222             0       7.95893      0.923219             0       6.57336        -2.836             0       10.6234             0             0      0.181897   1.78599e-15      0.209144        102463        103217        230931   3.27226e-15
    0.0395395       288.121       288.678      0.109383       1.57488       6.73611             0         8.066      0.895706             0       7.37542      -3.11485             0       10.1877             0             0      0.182353   1.75579e-15      0.207159        102464        103218        231042   3.21693e-15
      0.04004       288.093       288.679      0.106259      0.816471       6.72051             0        8.1718      0.867982             0       8.20787      -3.38227             0       9.74028             0             0      0.182879    1.7238e-15      0.204876        102466        103219        231148   3.15832e-15
    0.0405405       288.046       288.679      0.103345      0.122775       6.59569             0       8.26297      0.837838             0        9.3899      -3.51831             0       9.15735             0             0      0.184196   1.67121e-15      0.199149        102468        103221        231211   3.06197e-15
     0.041041       287.998       288.678      0.100403     -0.560263       6.45933             0       8.35209      0.807513             0       10.5872      -3.64104             0       8.56664             0             0      0.185545   1.61817e-15      0.193282        102470        103222        231271   2.96479e-15
    0.0415415       287.948       288.675     0.0971522      -1.12398       6.19366             0       8.41833      0.775169             0       11.9556      -3.61495             0       7.88866             0             0      0.187259    1.5601e-15       0.18583        102472        103224        231308   2.85839e-15
     0.042042         287.9       288.673     0.0938902      -1.67585       5.92088             0       8.48135      0.742464             0       13.3139      -3.57777             0       7.20805             0             0      0.188928    1.5037e-15      0.178575        102475        103225        231341   2.75505e-15
    0.0425425       287.878       288.669     0.0905083      -2.09864       5.57047             0       8.50938      0.705836             0       14.5609      -3.41973             0       6.49879             0             0        0.1901   1.46545e-15      0.173477        102478        103227        231338   2.68499e-15
     0.043043       287.858       288.664     0.0871968      -2.51074        5.2144             0        8.5342      0.668827             0       15.7789      -3.25564             0       5.79287             0             0      0.191286   1.42721e-15      0.168323        102480        103228        231337   2.61491e-15
    0.0435435       287.857        288.66     0.0846324      -2.80921       4.79807             0       8.52488      0.627771             0       16.6879      -3.02727             0       5.12253             0             0      0.192605   1.38889e-15      0.162588        102483        103229        231365   2.54471e-15
     0.044044       287.856       288.656     0.0821439      -3.10046       4.37997             0       8.51334      0.586266             0       17.5648      -2.79987             0       4.45809             0             0      0.193923   1.35099e-15      0.156855        102485        103231        231397   2.47527e-15
    0.0445445       287.854       288.651     0.0804407      -3.31685       3.94355             0       8.47875      0.540119             0       18.1094      -2.58247             0       3.85482             0             0      0.195236   1.31742e-15      0.151146        102487        103232        231470   2.41375e-15
     0.045045       287.852       288.647     0.0787497      -3.52642       3.51096             0       8.44186       0.49336             0       18.6328      -2.36895             0       3.25714             0             0      0.196463   1.28628e-15      0.145813        102490        103233        231540   2.35671e-15
    0.0455455       287.846       288.645     0.0771803      -3.66696       3.11715             0       8.38166      0.440426             0       18.9427      -2.19469             0         2.716             0             0      0.196818   1.27986e-15      0.144269        102491        103234        231588   2.34495e-15