#           y             T         TMean   TPrime2Mean           U_x           U_y           U_z       UMean_x       UMean_y       UMean_z UPrime2Mea... UPrime2Mea... UPrime2Mea... UPrime2Mea... UPrime2Mea... UPrime2Mea...            O2           H2O          C3H8             p         pMean   pPrime2Mean           CO2
  1.11022e-19       287.969       288.023     0.0904068       23.8591  -3.16618e-16             0        22.302  -3.21512e-16             0       10.7898   1.32156e-16             0   1.08701e-16             0             0      0.229988   8.62708e-19   5.37964e-05        102747        103165        194426   1.58064e-18
  0.000500501       287.969       288.023     0.0904537       23.8798    0.00962407             0       22.3034     0.0144939             0       10.8125      -0.14956             0     0.0305914             0             0      0.229949   1.82605e-18   0.000220314        102747        103165        194353   3.34567e-18
     0.001001        287.97       288.024     0.0905018       23.9007     0.0192198             0       22.3048     0.0289878             0       10.8353      -0.29913             0     0.0613087             0             0       0.22991   2.80378e-18   0.000390083        102747        103165        194280   5.13705e-18
    0.0015015       287.982       288.027      0.091136       23.9902     0.0146985             0       22.3079     0.0434894             0       10.8938     -0.453423             0       0.15488             0             0      0.229498   1.09613e-17    0.00218208        102746        103165        194108   2.00831e-17
     0.002002       287.995       288.031       0.09179       24.0798     0.0100804             0       22.3111     0.0579833             0       10.9528      -0.60779             0      0.248872             0             0      0.229076   1.93528e-17    0.00401628        102745        103164        193936   3.54579e-17
    0.0025025       288.143       288.045     0.0973859       24.2197    -0.0186241             0       22.3178     0.0705815             0       11.1112     -0.780423             0       0.44766             0             0      0.226237    8.5998e-17     0.0163609        102744        103164        193725   1.57564e-16
     0.003003       288.295       288.059      0.103083         24.36    -0.0475403             0       22.3245     0.0831805             0       11.2702     -0.953368             0      0.647613             0             0       0.22336   1.54234e-16     0.0288717        102743        103164        193515   2.82586e-16
    0.0035035        289.13       288.084       0.12548       24.5727     -0.111515             0       22.3468     0.0959133             0       11.5391      -1.17796             0       1.04046             0             0       0.21415   4.86074e-16      0.068915        102741        103163        193325   8.90579e-16
     0.004004       289.973       288.108      0.148149       24.7853     -0.176389             0       22.3694       0.10862             0       11.8088      -1.40344             0       1.43516             0             0      0.204923   8.20873e-16      0.109032        102739        103162        193137   1.50399e-15
    0.0045045       291.691       288.128      0.204505       24.9979     -0.352902             0       22.4238      0.118095             0       12.1838      -1.73797             0       2.05859             0             0      0.193596   1.52259e-15      0.158277        102735        103161        193033   2.78968e-15
   0.00500501       293.411       288.148       0.26117       25.2098     -0.528423             0       22.4786      0.127627             0       12.5586      -2.07258             0       2.68215             0             0      0.182322   2.22709e-15      0.207296        102731        103160        192929   4.08045e-15
   0.00550551       295.334       288.159       0.34827       25.3659     -0.605646             0       22.5876       0.14276             0       12.9267      -2.41572             0       3.31916             0             0      0.176205   3.20635e-15      0.233889        102725        103159        192860   5.87464e-15
   0.00600601       297.251       288.171      0.435182       25.5217       -0.6797             0       22.6954      0.157898             0       13.2928      -2.75864             0       3.95486             0             0      0.170133   4.18648e-15      0.260291        102718        103157        192790   7.67041e-15
   0.00650651       298.628       288.179      0.506561       25.6468     -0.492835             0       22.7054      0.173485             0       13.4898       -3.0831             0       4.48231             0             0      0.167695   5.23755e-15      0.270891        102713        103156        192643   9.59617e-15
   0.00700701       299.986       288.187      0.576653       25.7674     -0.302498             0       22.7107      0.189126             0        13.682      -3.40481             0       5.00859             0             0      0.165256    6.2811e-15      0.281495        102707        103155        192495   1.15082e-14
   0.00750751       299.996       288.215      0.556141       25.5695      0.132428             0       22.3937      0.208572             0        13.531      -3.53266             0       5.45209             0             0      0.162739   6.79482e-15      0.292438        102699        103153        192312   1.24494e-14
   0.00800801       299.987       288.244      0.534601       25.3519      0.569539             0       22.0681       0.22824             0       13.3708      -3.65544             0       5.89495             0             0      0.160216   7.29145e-15       0.30341        102691        103152        192127   1.33593e-14
   0.00850851       298.787       288.282      0.449909       23.9205       1.14109             0       21.2129      0.261546             0       12.6456      -3.46637             0       6.29835             0             0      0.157293   6.73709e-15      0.316116        102681        103151        191838   1.23436e-14
   0.00900901       297.584       288.319      0.365623       22.4716       1.71393             0       20.3492      0.294741             0       11.9113      -3.27224             0       6.69582             0             0      0.154424   6.17461e-15       0.32859        102671        103150        191545    1.1313e-14
   0.00950951       296.255       288.312      0.303445       20.0723       2.35744             0       19.0163      0.321849             0       10.6866      -2.80245             0       6.76916             0             0      0.154469   5.16891e-15      0.328397        102665        103150        191029    9.4704e-15
      0.01001       294.921       288.304      0.242127       17.6859       2.98783             0       17.6833      0.348246             0       9.47205       -2.3346             0       6.83605             0             0      0.154597   4.16333e-15       0.32784        102660        103149        190510   7.62799e-15
    0.0105105       293.362        288.25       0.22295       15.9324       2.97571             0       16.3469      0.339822             0       8.75264      -1.96169             0       6.58737             0             0      0.158816   3.16401e-15      0.309497        102660        103149        189839   5.79705e-15
     0.011011       291.808       288.196      0.204676       14.2001       2.95521             0       15.0214      0.330208             0       8.06478       -1.6047             0       6.34577             0             0      0.162982   2.17114e-15      0.291381        102660        103149        189168   3.97792e-15
    0.0115115       290.508       288.128       0.22656        13.409       2.56248             0       14.1798      0.267694             0       8.77988      -1.95486             0       6.41881             0             0      0.164827   1.46471e-15      0.283362        102660        103149        188529   2.68363e-15
     0.012012       289.225        288.06      0.248819       12.6285       2.17914             0       13.3512      0.205307             0       9.52797      -2.31885             0        6.5045             0             0      0.166505   7.70543e-16      0.276066        102660        103149        187890   1.41178e-15
    0.0125125       288.675       288.022      0.286299       12.2772       2.17817             0       13.0505      0.148087             0       11.6175      -3.24517             0       7.10505             0             0      0.161417   5.74528e-16      0.298188        102657        103148        187229   1.05264e-15
     0.013013       288.132       287.985      0.323259       11.9343       2.17831             0       12.7582     0.0908057             0       13.7396      -4.17505             0        7.7171             0             0      0.156217   3.81876e-16      0.320797        102654        103148        186566   6.99669e-16
    0.0135135       287.903       287.991      0.340703       11.9013       2.22039             0       12.7802     0.0312534             0       17.0837      -5.23811             0       8.76009             0             0      0.146813   3.15213e-16      0.361681        102651        103146        185826    5.7753e-16
     0.014014       287.682       287.998        0.3574       11.8744       2.26521             0       12.8096    -0.0279161             0       20.4383      -6.29772             0       9.81435             0             0      0.137494    2.4991e-16      0.402202        102647        103145        185086   4.57883e-16
    0.0145145       287.758       288.028      0.348143       12.0617        2.4056             0       13.0953    -0.0737991             0       24.1605      -7.23768             0       11.2601             0             0      0.131073   2.31815e-16      0.430116        102642        103143        184336   4.24729e-16
     0.015015        287.84       288.059      0.338704       12.2632       2.54679             0       13.3876     -0.119418             0       27.8655      -8.16854             0        12.715             0             0      0.124793   2.14264e-16      0.457422        102638        103141        183590   3.92571e-16
    0.0155155       288.095       288.093      0.323383       12.9232       2.71383             0       13.8971      -0.15651             0       31.0135      -8.80518             0       14.4689             0             0      0.123039   2.14301e-16      0.465047        102633        103138        182946   3.92639e-16
     0.016016       288.352       288.126      0.308057       13.6095       2.87731             0       14.4141     -0.192797             0       34.1581      -9.42251             0       16.2268             0             0      0.121389    2.1439e-16      0.472223        102629        103135        182315   3.92802e-16
    0.0165165       288.642        288.15      0.292566       15.0877       2.93292             0        15.156     -0.204725             0       37.1982      -9.45567             0       18.1094             0             0      0.122859   2.16052e-16      0.465831        102623        103131        182039   3.95848e-16
     0.017017       288.925       288.174       0.27701       16.5965       2.97857             0       15.9072     -0.214712             0        40.249      -9.44321             0       19.9921             0             0      0.124667   2.17631e-16       0.45797        102618        103128        181785   3.98741e-16
    0.0175175       288.966       288.178      0.259628       18.9718       2.74126             0       16.9242     -0.169533             0       43.6029      -8.13479             0       21.8751             0             0      0.136079   2.16841e-16      0.408352        102611        103124        182122   3.97293e-16
     0.018018       288.997       288.182        0.2425       21.3442       2.50184             0       17.9367     -0.122716             0        46.937        -6.792             0       23.7592             0             0      0.147764   2.15369e-16      0.357549        102603        103120        182486   3.94596e-16
    0.0185185       288.719       288.161      0.232156       23.6404        2.2059             0       18.8268    -0.0320223             0       49.7444      -4.52918             0       25.6695             0             0      0.166752    1.9564e-16      0.274991        102591        103115        183569    3.5845e-16
     0.019019       288.442       288.141      0.222012       25.8911       1.91741             0       19.7008     0.0574845             0       52.4922      -2.27453             0       27.5845             0             0       0.18555   1.75252e-16      0.193261        102579        103110        184680   3.21095e-16
    0.0195195       288.204       288.119      0.216912       26.9911       1.81734             0       20.1673      0.116951             0       53.7349     -0.226629             0       29.6153             0             0      0.199526   1.38168e-16      0.132495        102567        103105        186519   2.53149e-16
      0.02002       287.972       288.098      0.211675       28.0546       1.72384             0       20.6225      0.175292             0       54.8901       1.80079             0       31.6595             0             0      0.213178   1.01658e-16     0.0731408        102555        103100        188384   1.86256e-16
    0.0205205       287.926       288.094      0.203159       28.2432       1.78831             0       20.8051      0.206618             0       53.9474       3.33661             0       34.0252             0             0      0.219033   7.89363e-17     0.0476816        102543        103095        190891   1.44626e-16
     0.021021       287.881        288.09      0.194479       28.4145       1.85371             0       20.9785      0.237098             0       52.9265       4.85383             0       36.4007             0             0      0.224719   5.73187e-17     0.0229622        102531        103090        193415   1.05019e-16
    0.0215215       287.881       288.095      0.182044       28.1908       1.94015             0       20.9412      0.248276             0       50.1231       5.94683             0       39.0016             0             0      0.226523   6.08812e-17     0.0151179        102520        103085        196334   1.11546e-16
     0.022022       287.882         288.1       0.16964       27.9363       2.02086             0       20.8928      0.258137             0       47.2824       7.02516             0       41.6072             0             0      0.228245   6.55387e-17    0.00763165        102509        103079        199270   1.20079e-16
    0.0225225       287.885       288.113      0.157917       27.0142       1.97694             0       20.6036      0.239396             0       43.6321       7.78468             0       44.3123             0             0      0.228177   9.39849e-17     0.0079254        102498        103074        202555   1.72198e-16
     0.023023       287.888       288.126      0.146403       26.0527       1.92033             0       20.3015      0.218668             0         40.01       8.52744             0       47.0227             0             0      0.228029   1.25493e-16    0.00857004        102486        103068        205859   2.29926e-16
    0.0235235        287.87       288.147      0.139222       24.2739       1.60055             0       19.7311      0.156705             0       36.9717       8.92263             0       49.8395             0             0      0.226207   2.20497e-16     0.0164918        102476        103062        209576   4.03991e-16
     0.024024       287.852       288.168      0.132253       22.5111       1.27044             0       19.1567     0.0927297             0       34.0213       9.31274             0        52.662             0             0      0.224315   3.17756e-16      0.024717        102465        103056        213316   5.82189e-16
    0.0245245       287.849       288.192       0.12947       21.0676      0.735608             0       18.5037    -0.0111615             0       32.8154        9.6019             0       55.5977             0             0      0.221039   4.59753e-16     0.0389624        102454        103051        217503   8.42353e-16
     0.025025       287.846       288.217      0.126794        19.665      0.194667             0       17.8564     -0.115641             0        31.649       9.90407             0       58.5374             0             0       0.21785   5.96986e-16     0.0528239        102443        103045        221710   1.09379e-15
    0.0255255       287.861       288.237      0.126146       19.0391     -0.462306             0       17.3176     -0.231306             0       31.2336       10.4532             0       61.5535             0             0       0.21634    6.4372e-16     0.0593931        102431        103040        226296   1.17942e-15
     0.026026       287.875       288.257      0.125454       18.4095      -1.11679             0       16.7804     -0.347392             0       30.7921       11.0047             0       64.5654             0             0       0.21497   6.85155e-16     0.0653499        102418        103034        230894   1.25533e-15
    0.0265265       287.863       288.268      0.123969       17.7153      -1.72582             0       16.2715     -0.471169             0       29.8774       11.5983             0       67.5015             0             0      0.216167   6.29989e-16     0.0601432        102404        103027        235694   1.15426e-15
     0.027027       287.851        288.28      0.122405        17.009      -2.33207             0       15.7569     -0.595855             0       28.9417       12.1805             0       70.4266             0             0      0.217376   5.75486e-16     0.0548868        102391        103020        240494    1.0544e-15
    0.0275275       287.842       288.289      0.119457       16.0919      -2.88945             0       15.1394     -0.736459             0       27.6383        12.563             0       73.1588             0             0      0.218785     5.326e-16     0.0487603        102376        103013        245289   9.75823e-16
     0.028028       287.833       288.298      0.116528       15.1743      -3.44787             0       14.5157     -0.877954             0       26.3349       12.9361             0        75.869             0             0      0.220144   4.91456e-16      0.042852        102362        103005        250063   9.00439e-16
    0.0285285       287.835       288.305      0.113928       14.2482      -4.02394             0        13.788      -1.03447             0       25.0304       13.1513             0       78.2064             0             0      0.220657   4.79658e-16     0.0406206        102349        102998        254495   8.78822e-16
     0.029029       287.837       288.311      0.111428       13.3205      -4.59941             0       13.0544      -1.19159             0       23.7543       13.3613             0       80.5094             0             0      0.221147   4.68192e-16     0.0384924        102335        102991        258874   8.57814e-16
    0.0295295       287.838       288.313      0.110539       12.3673      -5.16516             0       12.2256      -1.35874             0       22.9383       13.4876             0       82.2523             0             0      0.221251   4.62118e-16     0.0380395        102321        102983        262382   8.46686e-16
      0.03003       287.838       288.314      0.109693       11.4132      -5.73233             0       11.3923      -1.52647             0       22.1812       13.6168             0       83.9492             0             0       0.22135   4.56093e-16     0.0376078        102307        102976        265807   8.35647e-16
    0.0305305       287.835       288.313      0.109511       10.4475      -6.32161             0       10.4883      -1.70339             0       22.3451       13.7926             0       84.9248             0             0      0.221373   4.50824e-16     0.0375083        102294        102970        267940   8.25994e-16
     0.031031       287.833       288.312      0.109292       9.47743      -6.90919             0       9.58118      -1.88006             0       22.5786       13.9783             0       85.8494             0             0      0.221393   4.45652e-16     0.0374213        102281        102964        269982   8.16518e-16
    0.0315315       287.828       288.311      0.108531        8.4416      -7.47115             0       8.62627       -2.0529             0       23.8639       14.3152             0       86.0016             0             0       0.22137   4.41935e-16     0.0375229        102268        102959        270651   8.09707e-16
     0.032032       287.823       288.309      0.107773       7.40182      -8.03109             0       7.67009      -2.22511             0        25.194        14.658             0       86.1083             0             0      0.221344   4.38404e-16     0.0376363        102255        102954        271244   8.03237e-16
    0.0325325       287.816       288.307      0.107041       6.30427      -8.56131             0       6.69523      -2.38818             0       27.1773       15.0866             0        85.548             0             0      0.221278   4.37585e-16     0.0379215        102243        102950        270745   8.01737e-16
     0.033033       287.808       288.305      0.106358        5.2033      -9.08794             0       5.72098      -2.55032             0       29.1482       15.5061             0       84.9521             0             0      0.221213   4.36848e-16     0.0382054        102231        102946        270208   8.00387e-16
    0.0335335       287.801       288.304       0.10638       4.05404      -9.56366             0       4.75539      -2.69938             0        30.943       15.7976             0       83.8515             0             0      0.221152   4.37272e-16     0.0384701        102220        102944        269148   8.01164e-16
     0.034034       287.794       288.302      0.106449       2.90353      -10.0351             0       3.79101      -2.84753             0       32.6681       16.0594             0       82.7212             0             0      0.221088   4.37637e-16     0.0387487        102210        102941        268084   8.01833e-16
    0.0345345       287.786       288.302      0.107181       1.73598      -10.4473             0        2.8431      -2.98307             0       33.4372       15.9148             0       81.1856             0             0       0.22098   4.37196e-16     0.0392156        102202        102940        266976   8.01024e-16
     0.035035       287.778       288.302      0.107944      0.568391      -10.8537             0       1.89589      -3.11805             0       34.1156       15.7264             0       79.6217             0             0      0.220866   4.36676e-16     0.0397123        102194        102939        265878   8.00071e-16
    0.0355355       287.769       288.303      0.109127     -0.599779      -11.1828             0      0.957837      -3.24558             0       33.5879       14.9572             0       77.6818             0             0      0.220661   4.35105e-16     0.0406056        102190        102939        264910   7.97193e-16
     0.036036        287.76       288.305      0.110352      -1.76587      -11.5055             0     0.0198025      -3.37286             0       33.0097       14.1479             0       75.7117             0             0      0.220452   4.33476e-16     0.0415131        102185        102939        263943   7.94208e-16
    0.0365365       287.751       288.307      0.112132      -2.90521      -11.7445             0     -0.918012      -3.49676             0       31.7797       12.8238             0       73.3533             0             0      0.220201   4.31091e-16     0.0426043        102184        102941        262978   7.89839e-16
     0.037037       287.743       288.309      0.113986      -4.04105      -11.9765             0      -1.85577       -3.6197             0       30.5711       11.4882             0       70.9661             0             0      0.219945   4.28692e-16     0.0437165        102183        102943        261993   7.85444e-16
    0.0375375       287.734        288.31      0.116776      -5.13315      -12.1189             0      -2.79289      -3.73076             0       29.6313       10.0105             0       68.2193             0             0      0.219629   4.26117e-16      0.045093        102185        102946        260756   7.80725e-16
     0.038038       287.725       288.311      0.119634      -6.21999      -12.2542             0      -3.72858      -3.83974             0       28.7694       8.56265             0       65.4484             0             0      0.219308   4.23593e-16     0.0464877        102188        102950        259484   7.76101e-16
    0.0385385       287.717       288.312      0.123322      -7.24294      -12.3021             0      -4.64693      -3.92343             0       28.8553       7.47857             0       62.3855             0             0      0.218936   4.21691e-16     0.0481048        102194        102955        257791   7.72616e-16
     0.039039        287.71       288.311      0.127066      -8.25943      -12.3423             0      -5.56072      -4.00398             0       29.0418        6.4545             0        59.308             0             0      0.218557   4.19915e-16     0.0497519        102201        102960        256063   7.69362e-16
    0.0395395       287.704       288.309      0.131481      -9.19951      -12.2916             0      -6.42048       -4.0474             0       30.4175       6.13993             0       56.0585             0             0      0.218096   4.19624e-16     0.0517547        102210        102968        253916    7.6883e-16
      0.04004       287.698       288.307      0.135778      -10.1313      -12.2325             0       -7.2713      -4.08694             0       31.8854       5.88897             0       52.8017             0             0      0.217616   4.19594e-16     0.0538442        102220        102975        251742   7.68775e-16
    0.0405405       287.692       288.305      0.138722      -10.9672      -12.0768             0      -8.01926      -4.08165             0       34.4127       6.36955             0       49.4607             0             0      0.216906   4.22561e-16     0.0569317        102232        102984        249260   7.74211e-16
     0.041041       287.686       288.303      0.141306      -11.7927      -11.9113             0      -8.75414      -4.07187             0       36.9927       6.89274             0       46.1156             0             0      0.216165   4.26222e-16     0.0601538        102244        102993        246771   7.80919e-16
    0.0415415       287.685       288.304      0.139855       -12.501      -11.6379             0      -9.34263      -4.01176             0       40.1623       7.89301             0       42.7243             0             0      0.215077   4.37656e-16     0.0648813        102257        103002        244203   8.01868e-16
     0.042042       287.685       288.305      0.138279      -13.1963      -11.3541             0      -9.91586      -3.94691             0        43.332       8.90514             0        39.335             0             0      0.213915   4.51081e-16     0.0699327        102271        103012        241650   8.26465e-16
    0.0425425       287.704       288.308      0.135335       -13.749      -10.9567             0      -10.3226      -3.83045             0       46.5031       10.0466             0        35.968             0             0      0.211941   4.86217e-16     0.0785176        102285        103021        239268    8.9084e-16
     0.043043       287.724       288.311      0.132555      -14.2869      -10.5492             0      -10.7144      -3.70894             0       49.6621       11.1735             0       32.6145             0             0      0.209879   5.24337e-16     0.0874827        102299        103030        236920   9.60683e-16
    0.0435435       287.771       288.312      0.131529      -14.6672      -10.0331             0      -10.9462      -3.53385             0       52.6933       12.1463             0       29.4043             0             0      0.206887   5.94168e-16       0.10049        102314        103039        234931   1.08863e-15
     0.044044       287.817       288.313       0.13056      -15.0327      -9.50973             0      -11.1641      -3.35444             0       55.7647       13.0983             0       26.2167             0             0      0.203943   6.63866e-16       0.11329        102328        103048        232989   1.21633e-15
    0.0445445       287.859        288.31      0.130197      -15.2442      -8.91032             0      -11.2365      -3.13034             0       59.2529        13.835             0        23.264             0             0      0.201495   7.32181e-16      0.123933        102342        103056        231529   1.34149e-15
     0.045045       287.901       288.306      0.129914      -15.4419      -8.30588             0      -11.2967      -2.90318             0       62.8727       14.5453             0        20.333             0             0      0.199115   7.99835e-16      0.134284        102355        103064        230115   1.46545e-15
    0.0455455       287.935       288.297      0.130448      -15.4996       -7.6504             0       -11.232      -2.64498             0        67.824        14.989             0       17.6218             0             0      0.197412   8.60823e-16      0.141685        102367        103072        229171   1.57719e-15