#           y             T         TMean   TPrime2Mean           U_x           U_y           U_z       UMean_x       UMean_y       UMean_z UPrime2Mea... UPrime2Mea... UPrime2Mea... UPrime2Mea... UPrime2Mea... UPrime2Mea...            O2           H2O          C3H8             p         pMean   pPrime2Mean           CO2
  1.11022e-19       288.199       288.584     0.0961052       17.2568  -3.04004e-17             0       12.5723   2.31543e-18             0       36.9943   4.61577e-18             0   6.05541e-18             0             0      0.182957   2.37103e-15      0.204536        102284        103201        270258   4.34418e-15
  0.000500501       288.184       288.592     0.0935117       16.8636     -0.137048             0       12.5479     0.0104382             0       36.5492     0.0208084             0     0.0272984             0             0      0.183749   2.36003e-15      0.201089        102284        103201        270259   4.32402e-15
     0.001001       288.168         288.6     0.0909182       16.4695     -0.274077             0       12.5234     0.0208757             0       36.1024     0.0416868             0     0.0546755             0             0      0.184545   2.34897e-15      0.197631        102284        103201        270259   4.30374e-15
    0.0015015       288.116       288.611     0.0883148       15.6631     -0.401219             0       12.4563     0.0309734             0        34.795     0.0974682             0      0.121309             0             0      0.186698   2.30445e-15      0.188271        102284        103201        270249   4.22218e-15
     0.002002       288.064       288.622     0.0857296       14.8576     -0.528325             0       12.3892     0.0410642             0       33.4864      0.153314             0      0.188125             0             0      0.188859   2.25963e-15      0.178873        102283        103201        270238   4.14007e-15
    0.0025025       287.957       288.624     0.0876533       14.2671     -0.646477             0       12.3114     0.0494492             0       31.8735      0.225271             0       0.30061             0             0      0.193239   2.14031e-15       0.15983        102283        103200        270213   3.92145e-15
     0.003003       287.851       288.627        0.0896        13.679     -0.764568             0       12.2336     0.0578214             0       30.2625      0.297105             0      0.413359             0             0       0.19763   2.02061e-15      0.140738        102283        103200        270187   3.70213e-15
    0.0035035       287.736       288.625     0.0953461       13.4815     -0.872709             0       12.1755     0.0640583             0       28.9549      0.348803             0      0.569778             0             0      0.203857   1.83716e-15      0.113666        102283        103200        270167   3.36601e-15
     0.004004       287.622       288.623      0.101093       13.2853     -0.980826             0       12.1176     0.0702847             0       27.6495      0.400306             0        0.7265             0             0      0.210066   1.65408e-15     0.0866673        102282        103200        270146   3.03058e-15
    0.0045045        287.63        288.62      0.106866       13.2528      -1.08599             0       12.0768     0.0752043             0       26.6181      0.427784             0      0.920727             0             0        0.2142   1.51755e-15     0.0686969        102282        103200        270098   2.78043e-15
   0.00500501        287.64       288.617      0.112557         13.22       -1.1911             0       12.0361     0.0801177             0       25.5882      0.455113             0       1.11525             0             0      0.218303   1.38174e-15      0.050858        102282        103199        270049    2.5316e-15
   0.00550551       287.807       288.619      0.110044       13.1701      -1.29002             0       12.0019      0.084402             0       24.7091      0.467726             0       1.33879             0             0       0.21941   1.31788e-15     0.0460432        102282        103199        269980    2.4146e-15
   0.00600601       287.974        288.62      0.107448         13.12      -1.38892             0       11.9678     0.0886773             0       23.8321       0.48011             0       1.56261             0             0      0.220508   1.25418e-15     0.0412686        102282        103199        269911   2.29789e-15
   0.00650651       288.147       288.627     0.0979619        13.045      -1.48644             0       11.9394     0.0922026             0       23.1308      0.473655             0       1.80989             0             0      0.220845   1.20343e-15     0.0398021        102282        103198        269819    2.2049e-15
   0.00700701       288.318       288.633     0.0885114       12.9701      -1.58401             0       11.9111     0.0957127             0       22.4328      0.466804             0       2.05753             0             0      0.221182   1.15276e-15     0.0383407        102281        103198        269726   2.11207e-15
   0.00750751       288.391       288.638     0.0815388       12.8971      -1.68478             0       11.8922     0.0981499             0       21.9684      0.432057             0       2.33034             0             0      0.221434   1.10793e-15     0.0372418        102281        103198        269609   2.02993e-15
   0.00800801       288.462       288.643     0.0746319       12.8242       -1.7856             0       11.8734      0.100574             0       21.5072      0.396931             0       2.60361             0             0      0.221684   1.06338e-15     0.0361573        102281        103198        269493   1.94831e-15
   0.00850851       288.481       288.645     0.0717704       12.7512      -1.88976             0       11.8612      0.102176             0       21.2442      0.338507             0       2.90461             0             0      0.221731   1.03633e-15     0.0359542        102281        103197        269359   1.89875e-15
   0.00900901       288.499       288.647     0.0689376       12.6781      -1.99393             0        11.849      0.103773             0       20.9828      0.279912             0       3.20614             0             0      0.221778    1.0092e-15      0.035746        102281        103197        269224   1.84905e-15
   0.00950951       288.504       288.648     0.0676682        12.601      -2.09896             0       11.8356      0.105062             0       20.8033       0.21194             0       3.53572             0             0      0.221891   9.77566e-16     0.0352556        102281        103197        269081   1.79108e-15
      0.01001       288.509       288.649     0.0664177       12.5236      -2.20389             0       11.8221      0.106347             0       20.6235      0.143896             0       3.86594             0             0       0.22201   9.45549e-16     0.0347373        102281        103196        268938   1.73242e-15
    0.0105105       288.502        288.65     0.0660919        12.434      -2.30427             0       11.8022      0.107434             0       20.4298     0.0723425             0        4.2276             0             0      0.222445   8.94891e-16     0.0328468        102281        103196        268796   1.63961e-15
     0.011011       288.495        288.65     0.0657784        12.344      -2.40461             0        11.782       0.10851             0       20.2346   0.000670753             0       4.59008             0             0      0.222884   8.44128e-16     0.0309391        102281        103196        268655    1.5466e-15
    0.0115115        288.48       288.651     0.0660071       12.2383      -2.50303             0        11.753      0.109112             0       19.9688    -0.0762497             0       4.98926             0             0      0.223499   7.88673e-16     0.0282651        102280        103195        268512     1.445e-15
     0.012012       288.466       288.651     0.0662377       12.1326      -2.60155             0       11.7236      0.109703             0       19.6998      -0.15306             0       5.38926             0             0      0.224118   7.32832e-16     0.0255748        102280        103195        268370   1.34268e-15
    0.0125125       288.444       288.652     0.0665438        12.025      -2.70376             0       11.6822      0.109888             0       19.3026     -0.225378             0        5.8225             0             0       0.22489   6.61326e-16     0.0222177        102280        103195        268269   1.21167e-15
     0.013013       288.423       288.652     0.0668405       11.9173       -2.8058             0       11.6403      0.110107             0       18.8994     -0.296333             0        6.2558             0             0       0.22566     5.897e-16     0.0188689        102280        103194        268168   1.08044e-15
    0.0135135       288.398       288.654     0.0667862       11.8043      -2.90178             0        11.579      0.111606             0       18.2694     -0.316193             0       6.69118             0             0       0.22636   5.13562e-16     0.0158281        102280        103194        268086   9.40941e-16
     0.014014       288.373       288.656     0.0667282       11.6906      -2.99715             0       11.5168      0.113208             0       17.6307     -0.333234             0       7.12512             0             0      0.227053   4.37967e-16     0.0128155        102280        103193        268004   8.02437e-16
    0.0145145       288.346       288.658     0.0665372       11.5522      -3.07162             0       11.4274      0.118351             0       16.6948     -0.252433             0       7.50908             0             0      0.227521    3.8122e-16     0.0107803        102280        103193        267937   6.98467e-16
     0.015015       288.318       288.661     0.0663451       11.4136      -3.14595             0       11.3372      0.123582             0       15.7519     -0.169516             0       7.89094             0             0      0.227985   3.24986e-16    0.00875956        102279        103192        267870   5.95434e-16
    0.0155155       288.288       288.663     0.0661174        11.265      -3.21628             0       11.2197      0.131609             0        14.581     -0.018203             0        8.2046             0             0      0.228342   2.85304e-16    0.00721004        102279        103192        267842    5.2273e-16
     0.016016       288.258       288.666     0.0658813       11.1172      -3.28743             0       11.1015      0.139602             0       13.4081      0.132497             0       8.51688             0             0      0.228694   2.46168e-16    0.00567836        102279        103191        267812   4.51025e-16
    0.0165165       288.235       288.668     0.0653933       10.9907       -3.3834             0       10.9643      0.146541             0       12.1751      0.264642             0       8.78772             0             0      0.228922    2.2355e-16    0.00468631        102278        103191        267769   4.09585e-16
     0.017017       288.213        288.67     0.0649067       10.8648      -3.48004             0       10.8267      0.153367             0        10.945      0.394571             0       9.05728             0             0      0.229146   2.01394e-16    0.00371421        102278        103191        267725   3.68992e-16
    0.0175175       288.202       288.672     0.0644635        10.758      -3.59565             0       10.6772      0.156983             0        9.8006      0.461575             0       9.29024             0             0      0.229239   1.92388e-16    0.00330945        102277        103190        267652    3.5249e-16
     0.018018       288.191       288.674     0.0640271        10.651      -3.71093             0       10.5272      0.160513             0       8.66315      0.526915             0       9.52047             0             0       0.22933   1.83574e-16    0.00291352        102277        103190        267578   3.36341e-16
    0.0185185       288.186       288.676     0.0637761        10.538      -3.81753             0       10.3685      0.161726             0         7.713      0.547725             0       9.67775             0             0      0.229366   1.79929e-16    0.00275447        102276        103190        267465   3.29663e-16
     0.019019       288.182       288.677     0.0635226       10.4243      -3.92325             0       10.2097      0.162862             0       6.77338      0.567531             0       9.83131             0             0      0.229402   1.76431e-16    0.00260003        102276        103189        267350   3.23255e-16
    0.0195195       288.178        288.68     0.0632029       10.2954      -4.00668             0       10.0477      0.162055             0       6.10036      0.561938             0       9.89069             0             0      0.229411   1.76671e-16    0.00256246        102275        103189        267197   3.23694e-16
      0.02002       288.175       288.682     0.0628589        10.166      -4.08896             0       9.88583      0.161132             0       5.43954      0.555435             0       9.94659             0             0      0.229418   1.77078e-16     0.0025308        102275        103189        267044    3.2444e-16
    0.0205205       288.172       288.686     0.0619326       10.0248      -4.14378             0       9.72802      0.157431             0       5.07145       0.52709             0       9.91924             0             0      0.229393     1.815e-16    0.00264088        102274        103189        266893   3.32542e-16
     0.021021       288.169       288.689     0.0609776       9.88323      -4.19743             0       9.57047      0.153633             0       4.71459      0.498339             0       9.88854             0             0      0.229366   1.86021e-16    0.00275651        102274        103189        266743   3.40825e-16
    0.0215215       288.168       288.694     0.0593666       9.73443      -4.22416             0       9.41874      0.147643             0       4.61393      0.460303             0       9.78133             0             0       0.22931    1.9279e-16    0.00299876        102274        103189        266613   3.53228e-16
     0.022022       288.167       288.699     0.0577433       9.58557      -4.24993             0       9.26717      0.141635             0        4.5224      0.422768             0       9.67042             0             0       0.22925    1.9991e-16    0.00325924        102273        103190        266484   3.66272e-16
    0.0225225       288.172       288.704     0.0558523       9.43522      -4.25492             0       9.11891      0.135254             0       4.62937      0.396124             0       9.47915             0             0      0.229099   2.14633e-16    0.00391596        102273        103190        266353   3.93248e-16
     0.023023       288.177       288.709     0.0539749         9.285      -4.25899             0       8.97079      0.128889             0       4.74403      0.370304             0        9.2842             0             0      0.228944   2.29663e-16    0.00458982        102273        103190        266220   4.20786e-16
    0.0235235       288.189       288.713     0.0523827       9.13747      -4.24386             0       8.82583      0.122872             0       5.01839      0.361568             0       9.01307             0             0      0.228708   2.51063e-16    0.00561922        102273        103190        266075   4.59994e-16
     0.024024         288.2       288.718     0.0508232       8.99017      -4.22778             0       8.68121      0.116855             0        5.2998      0.353425             0       8.73869             0             0      0.228471   2.72284e-16    0.00664671        102272        103191        265930   4.98875e-16
    0.0245245       288.214       288.722     0.0499143       8.84716      -4.19285             0        8.5435      0.110863             0       5.72106      0.357072             0       8.39985             0             0      0.228244   2.89977e-16    0.00763658        102272        103191        265785   5.31292e-16
     0.025025       288.229       288.727     0.0490211       8.70453      -4.15702             0       8.40646      0.104865             0       6.14763      0.361155             0       8.05844             0             0      0.228019   3.07306e-16    0.00861246        102272        103192        265639   5.63043e-16
    0.0255255       288.241       288.732     0.0484245       8.56902      -4.10418             0       8.28232     0.0987613             0       6.67508      0.373504             0       7.66797             0             0      0.227856    3.1772e-16     0.0093224        102272        103192        265460   5.82122e-16
     0.026026       288.253       288.737     0.0478121       8.43422      -4.05056             0       8.15917     0.0926625             0       7.20414       0.38611             0       7.27603             0             0      0.227699    3.2777e-16     0.0100041        102272        103193        265279   6.00536e-16
    0.0265265       288.265       288.742     0.0469118       8.31214       -3.9829             0        8.0541     0.0866598             0       7.76225      0.403408             0       6.85723             0             0      0.227661   3.31194e-16     0.0101706        102272        103193        265074   6.06809e-16
     0.027027       288.276       288.748     0.0459773       8.19094      -3.91465             0       7.95017     0.0806705             0         8.318      0.420831             0       6.43818             0             0      0.227629   3.34233e-16     0.0103089        102272        103194        264867   6.12377e-16
    0.0275275       288.292       288.756     0.0444441       8.08517      -3.83605             0       7.86601     0.0749166             0        8.8324      0.440429             0       6.01491             0             0      0.227711   3.30532e-16    0.00995214        102272        103194        264640   6.05597e-16
     0.028028       288.308       288.764     0.0429329        7.9803      -3.75694             0       7.78303     0.0692112             0       9.34061      0.460143             0       5.59239             0             0      0.227792   3.26722e-16    0.00959884        102272        103195        264412   5.98616e-16
    0.0285285       288.323       288.772     0.0417907       7.89057      -3.66916             0       7.71996     0.0643241             0       9.74437      0.481825             0        5.1825             0             0       0.22786    3.2106e-16    0.00930391        102272        103195        264184   5.88242e-16
     0.029029       288.338       288.781     0.0407307       7.80169      -3.58088             0       7.65811     0.0595661             0       10.1379      0.503196             0        4.7742             0             0      0.227932   3.15101e-16     0.0089934        102272        103196        263958   5.77324e-16
    0.0295295       288.346       288.787     0.0410037       7.72649      -3.48464             0       7.61612      0.056907             0       10.3649      0.519516             0       4.39194             0             0      0.228061   3.04326e-16    0.00843004        102272        103196        263781   5.57581e-16
      0.03003       288.353       288.793     0.0413074       7.65204      -3.38812             0       7.57528     0.0544074             0       10.5799      0.534895             0       4.01214             0             0      0.228195   2.93057e-16    0.00784897        102272        103196        263608   5.36935e-16
    0.0305305       288.355       288.796     0.0420918       7.58939      -3.28733             0       7.55241     0.0544086             0       10.6054      0.535538             0       3.67089             0             0      0.228392   2.74058e-16    0.00699032        102272        103197        263508   5.02125e-16
     0.031031       288.357       288.798     0.0428477       7.52731       -3.1866             0       7.53041     0.0545057             0       10.6215      0.535199             0       3.33278             0             0      0.228591     2.546e-16    0.00612594        102272        103198        263411   4.66474e-16
    0.0315315       288.354       288.797     0.0431732       7.47374      -3.08667             0       7.52143     0.0560541             0       10.4961      0.520008             0       3.04222             0             0       0.22881   2.28192e-16    0.00517479        102272        103198        263363    4.1809e-16
     0.032032       288.351       288.796     0.0434615       7.42043      -2.98701             0       7.51285     0.0576132             0       10.3678      0.504317             0       2.75498             0             0       0.22903   2.01776e-16     0.0042153        102272        103198        263321   3.69691e-16
    0.0325325       288.345       288.792     0.0432051       7.37085      -2.89122             0       7.51002     0.0593277             0       10.1964      0.481316             0       2.51629             0             0      0.229279   1.75239e-16    0.00313399        102272        103199        263358    3.2107e-16
     0.033033        288.34       288.789     0.0429181       7.32115      -2.79569             0       7.50717     0.0610084             0       10.0278      0.458215             0       2.28053             0             0      0.229521   1.49262e-16    0.00208446        102271        103199        263399   2.73475e-16
    0.0335335       288.337       288.784     0.0421979       7.26991      -2.70388             0       7.50385     0.0622097             0       9.90057      0.433684             0       2.08634             0             0      0.229659   1.31204e-16    0.00148469        102271        103199        263511    2.4039e-16
     0.034034       288.335       288.778     0.0414432       7.21851      -2.61215             0       7.50035     0.0633692             0       9.77795      0.409203             0       1.89441             0             0       0.22979   1.13258e-16   0.000910973        102271        103200        263626    2.0751e-16
    0.0345345       288.335       288.771     0.0402155       7.16487      -2.52163             0       7.49438     0.0639556             0       9.71879      0.385408             0       1.73341             0             0       0.22984   9.68426e-17   0.000694465        102271        103200        263783   1.77434e-16
     0.035035       288.336       288.765      0.038964       7.11124      -2.43101             0       7.48835     0.0644969             0       9.66233       0.36174             0       1.57409             0             0      0.229888   8.06247e-17   0.000486972        102270        103200        263944   1.47719e-16
    0.0355355       288.337       288.756     0.0373963        7.0577      -2.33918             0       7.48152     0.0644392             0       9.64172       0.33975             0       1.43713             0             0      0.229908   6.70344e-17   0.000399264        102270        103200        264158    1.2282e-16
     0.036036       288.339       288.748     0.0358468       7.00442      -2.24717             0        7.4748     0.0643411             0       9.62132      0.317907             0       1.30151             0             0      0.229928   5.38717e-17   0.000314742        102269        103201        264374    9.8703e-17
    0.0365365        288.34       288.739     0.0345324       6.95435      -2.15285             0       7.46953     0.0637228             0       9.60348      0.297948             0       1.18332             0             0      0.229938   4.62191e-17   0.000271283        102269        103201        264609   8.46819e-17
     0.037037       288.341        288.73     0.0332756       6.90461      -2.05839             0       7.46444     0.0630713             0       9.58476      0.278112             0       1.06633             0             0      0.229947   3.88255e-17    0.00022851        102268        103201        264844   7.11356e-17
    0.0375375       288.341       288.722     0.0327393       6.85901      -1.96209             0       7.46156     0.0620038             0       9.55514      0.259808             0      0.964248             0             0      0.229955   3.46748e-17   0.000194326        102268        103201        265090   6.35307e-17
     0.038038       288.342       288.714     0.0322591       6.81368      -1.86575             0       7.45882     0.0609052             0       9.52487      0.241614             0      0.863287             0             0      0.229963   3.05778e-17   0.000159933        102268        103201        265338   5.60242e-17
    0.0385385       288.342       288.708     0.0324602        6.7716      -1.76881             0       7.45778     0.0594278             0        9.4867      0.224759             0      0.775934             0             0      0.229972    2.7133e-17   0.000123018        102267        103201        265602   4.97128e-17
     0.039039       288.342       288.703     0.0326848       6.72964      -1.67191             0       7.45682     0.0579197             0       9.44848      0.208017             0      0.689609             0             0       0.22998   2.36845e-17   8.69401e-05        102267        103201        265868   4.33945e-17
    0.0395395       288.342         288.7     0.0331863       6.68912      -1.57549             0       7.45668     0.0560496             0       9.40978      0.192612             0      0.615437             0             0      0.229986    2.0192e-17    6.0754e-05        102267        103201        266144   3.69956e-17
      0.04004       288.341       288.696     0.0336846        6.6487      -1.47917             0       7.45657     0.0541491             0       9.37144      0.177335             0      0.542194             0             0      0.229992   1.67519e-17   3.59467e-05        102266        103201        266420   3.06927e-17
    0.0405405       288.342       288.694     0.0341469       6.60927      -1.38392             0       7.45669     0.0518995             0       9.33734      0.163526             0       0.47963             0             0      0.229994   1.39145e-17   2.69953e-05        102266        103201        266713   2.54941e-17
     0.041041       288.342       288.692     0.0345928       6.56995      -1.28882             0       7.45682     0.0496206             0       9.30371      0.149836             0      0.417903             0             0      0.229996   1.11472e-17   1.84521e-05        102266        103201        267004   2.04238e-17
    0.0415415       288.342       288.691     0.0348558       6.53171      -1.19535             0       7.45696     0.0470145             0       9.27536      0.137486             0      0.365542             0             0      0.229997   9.16448e-18   1.44785e-05        102265        103202        267292    1.6791e-17
     0.042042       288.342        288.69     0.0351082       6.49357      -1.10211             0        7.4571     0.0443794             0       9.24748      0.125251             0      0.313943             0             0      0.229998   7.25047e-18   1.06122e-05        102265        103202        267577   1.32842e-17
    0.0425425       288.342        288.69      0.035245       6.45658      -1.01138             0       7.45718     0.0414276             0       9.22472      0.114277             0      0.270654             0             0      0.229998   6.08604e-18   7.91593e-06        102265        103202        267839   1.11508e-17
     0.043043       288.342        288.69     0.0353747       6.41936     -0.921016             0       7.45727     0.0384486             0        9.2023      0.103407             0      0.228059             0             0      0.229999   4.95383e-18   5.30617e-06        102264        103202        268101   9.07636e-18
    0.0435435       288.342        288.69     0.0354297        6.3797     -0.834455             0       7.45738     0.0351801             0       9.18348     0.0936282             0      0.192836             0             0      0.229999   4.16405e-18   3.61601e-06        102264        103202        268358   7.62932e-18
     0.044044       288.342       288.689     0.0354803       6.33879     -0.748422             0       7.45737     0.0318834             0       9.16518     0.0839622             0      0.158256             0             0          0.23    3.3894e-18   2.02826e-06        102264        103202        268612   6.21001e-18
    0.0445445       288.343       288.689     0.0354851       6.28488      -0.66785             0       7.45623     0.0282944             0        9.1522     0.0754621             0      0.130327             0             0          0.23   2.77163e-18   1.50188e-06        102264        103202        268844   5.07814e-18
     0.045045       288.343       288.689     0.0354911       6.22669     -0.588026             0       7.45427     0.0246776             0       9.13619      0.067134             0      0.102993             0             0          0.23    2.1799e-18   1.00132e-06        102263        103202        269072     3.994e-18
    0.0455455       288.344        288.69     0.0355085       6.12521     -0.515756             0       7.44405     0.0207793             0       9.08953     0.0605457             0     0.0816807             0             0          0.23   1.85157e-18   7.61719e-07        102263        103202        269260   3.39242e-18