#           y             T         TMean   TPrime2Mean           U_x           U_y           U_z       UMean_x       UMean_y       UMean_z UPrime2Mea... UPrime2Mea... UPrime2Mea... UPrime2Mea... UPrime2Mea... UPrime2Mea...            O2           H2O          C3H8             p         pMean   pPrime2Mean           CO2
            0       288.326       288.011     0.0631261       23.7707             0             0       22.5285             0             0       5.65188             0             0             0             0             0          0.23   1.12089e-21   7.77445e-10        103090        103182        249571   2.05367e-21
  0.000500501       288.326       288.011     0.0631379       23.7833     0.0688654             0       22.5302     0.0103699             0       5.66542      0.136162             0     0.0418476             0             0          0.23   2.65293e-21   6.79781e-09        103090        103182        249105   4.86066e-21
     0.001001       288.326       288.011     0.0631495       23.7957      0.137768             0       22.5318     0.0207468             0        5.6791       0.27233             0     0.0838046             0             0          0.23   4.19961e-21   1.31154e-08        103090        103182        248638   7.69447e-21
    0.0015015       288.326       288.011     0.0630138       23.7701       0.22521             0       22.5274     0.0345941             0       5.76605      0.411926             0       0.18034             0             0          0.23    1.3053e-20   1.67731e-07        103090        103182        247355   2.39155e-20
     0.002002       288.325       288.011     0.0628778       23.7447      0.312762             0        22.523     0.0484231             0       5.85326      0.551657             0      0.277326             0             0          0.23    2.2006e-20   3.34179e-07        103089        103182        246069   4.03192e-20
    0.0025025       288.326       288.011     0.0626681       23.7667      0.427796             0       22.5226     0.0576688             0       6.00672      0.725123             0      0.486364             0             0      0.229999   5.57943e-20   3.44662e-06        103088        103182        244063   1.02226e-19
     0.003003       288.327       288.011     0.0624582       23.7884      0.543162             0       22.5221     0.0669938             0       6.16168      0.898623             0      0.696164             0             0      0.229998   9.11723e-20   7.01185e-06        103087        103182        242053   1.67045e-19
    0.0035035       288.328       288.011     0.0621973        23.745       0.71364             0       22.5109     0.0894618             0       6.56523        1.0779             0       1.03203             0             0       0.22998   3.89901e-19     8.559e-05        103084        103182        239477   7.14371e-19
     0.004004       288.329       288.011     0.0619423       23.7029      0.884742             0       22.4998      0.111844             0       6.97125       1.25856             0       1.37165             0             0      0.229962     6.922e-19   0.000166681        103081        103182        236899   1.26824e-18
    0.0045045       288.341       288.014     0.0624241       23.8239        1.1332             0       22.4998      0.123604             0       7.68379       1.60977             0       2.17724             0             0      0.229871   1.43727e-18   0.000559345        103075        103181        233916   2.63335e-18
   0.00500501       288.353       288.017     0.0634772       23.9422       1.38184             0       22.4993      0.135605             0       8.40531       1.96044             0       2.99049             0             0      0.229778   2.21306e-18   0.000966813        103069        103180        230932   4.05474e-18
   0.00550551       288.449       288.042       0.12108       23.7952       1.64871             0       22.4557      0.171524             0       10.0155       2.25719             0       4.56119             0             0      0.229347   6.03014e-18    0.00283979        103060        103179        227917   1.10483e-17
   0.00600601       288.547       288.069      0.186479       23.6508       1.91993             0        22.412      0.206803             0        11.623       2.56116             0       6.16124             0             0      0.228908   1.02179e-17    0.00474636        103050        103177        224906   1.87212e-17
   0.00650651       288.849       288.151      0.893793       23.7278       2.54861             0       22.3689      0.189425             0       13.0043       3.45945             0       10.1777             0             0      0.227834     4.493e-17    0.00941908        103037        103173        222307   8.23201e-17
   0.00700701       289.164       288.234       1.64499        23.808       3.17289             0       22.3264       0.17302             0       14.3575       4.35327             0       14.2166             0             0       0.22673    1.0025e-16      0.014216        103023        103169        219717   1.83676e-16
   0.00750751       290.394       288.394       5.48675       24.1198       3.48682             0       22.3231      0.225126             0         13.74       4.93319             0       19.8394             0             0      0.223614   1.60694e-15     0.0277631        103008        103163        217676   2.94421e-15
   0.00800801       291.898       288.557       9.59462       24.3995       3.80687             0       22.3095      0.275245             0       13.1077       5.47288             0       25.4731             0             0      0.220489   4.13923e-15     0.0413522        102993        103157        215637   7.58383e-15
   0.00850851        310.29       288.907       30.0685       22.7117       4.50346             0       21.6644      0.203192             0       11.5674       3.53913             0       31.7729             0             0      0.216768   6.97458e-14     0.0575326        102974        103149        213620   1.27787e-13
   0.00900901       328.781       289.255       50.6009       21.0297        5.2079             0       21.0172      0.131439             0        10.026        1.5895             0        38.029             0             0      0.213062   1.44357e-13     0.0736456        102955        103141        211579   2.64489e-13
   0.00950951         352.7       289.566       74.3274       19.6635       6.34154             0       20.2595     0.0760026             0       8.42852      -1.22655             0       41.9001             0             0      0.210201   7.10228e-13     0.0860805        102939        103137        208216   1.30127e-12
      0.01001       376.343       289.873       97.8244       18.3189        7.4554             0       19.4954     0.0238128             0       6.85677      -4.01194             0       45.6692             0             0      0.207346   1.30005e-12     0.0984961        102922        103133        204826   2.38193e-12
    0.0105105       386.442        289.96       110.078       18.0393       7.60035             0       18.4206      0.130714             0       6.54483      -5.29558             0       44.4422             0             0      0.204709   3.06347e-12      0.109963        102911        103138        200075   5.61286e-12
     0.011011       396.408       290.045        122.23       17.7439       7.73176             0       17.3303      0.236922             0       6.25448       -6.5428             0       43.1317             0             0       0.20198    4.8272e-12      0.121825        102900        103143        195306   8.84433e-12
    0.0115115       400.443        290.02       129.817       16.7454        7.2612             0       15.5535      0.312322             0       6.92394      -6.17125             0       38.1039             0             0      0.195205   6.60417e-12       0.15128        102892        103152        189765   1.21001e-11
     0.012012       404.337       289.994       137.249       15.7401       6.77793             0       13.7795      0.385821             0       7.57388      -5.77324             0       33.0357             0             0      0.188093   8.32534e-12      0.182204        102883        103161        184239   1.52536e-11
    0.0125125        402.46       289.929       138.394       14.4596        5.7777             0       12.1179       0.38203             0       7.43027      -4.29883             0       26.3221             0             0      0.167249   7.77746e-12      0.272832        102873        103169        179260   1.42498e-11
     0.013013       400.456       289.864       139.221       13.1982       4.78664             0       10.4825      0.376323             0       7.27277      -2.83273             0       19.6843             0             0      0.146181   7.18968e-12      0.364429        102864        103176        174321   1.31728e-11
    0.0135135       393.704       289.798       128.144       12.6564       4.13926             0       9.83006      0.298851             0       6.59506      -1.67833             0       15.8883             0             0      0.116763   5.10694e-12      0.492335        102850        103179        170872   9.35687e-12
     0.014014       386.942       289.733       116.985       12.1363       3.49903             0       9.20295      0.224012             0       5.91707     -0.549495             0       12.1509             0             0     0.0875869   3.04829e-12      0.619188        102837        103183        167448   5.58504e-12
    0.0145145       379.865       289.676       102.982       12.3712       3.10709             0       9.45618      0.240569             0       5.22974     -0.308252             0       10.4503             0             0     0.0668268   1.82582e-12      0.709449        102823        103184        164929   3.34525e-12
     0.015015       372.983       289.622       89.3818       12.5959        2.7221             0       9.70622      0.255536             0       4.56197    -0.0740757             0       8.78515             0             0      0.046675   6.38785e-13      0.797065        102808        103186        162444   1.17037e-12
    0.0155155       372.417       289.646       88.8102        12.494       2.56163             0       9.85317      0.219067             0       4.52646    -0.0683805             0       8.26845             0             0     0.0461929   5.97464e-13      0.799161        102792        103185        161028   1.09466e-12
     0.016016       371.471       289.659       87.6321       12.3919       2.40919             0        10.019      0.180204             0       4.57166    -0.0920725             0       7.79055             0             0     0.0463108   5.56677e-13      0.798649        102775        103185        159632   1.01994e-12
    0.0165165       359.022       289.372       68.1076       12.2828       2.49988             0       10.7551     0.0689012             0       7.05832      -1.00473             0       8.48662             0             0     0.0645785   5.32065e-13      0.719224        102765        103184        158819   9.74842e-13
     0.017017       346.278       289.081       48.4469       12.2529       2.56788             0       11.5575    -0.0468781             0       9.56249      -1.93055             0       9.17021             0             0     0.0832345   5.00864e-13      0.638111        102754        103183        158003   9.17677e-13
    0.0175175       325.163       288.697       24.9158       14.4704       1.99117             0       14.2401     -0.289836             0       12.5643      -3.23072             0       9.49894             0             0      0.112923   2.82492e-13       0.50903        102743        103183        157107   5.17578e-13
     0.018018       304.542       288.324       2.19423       16.7011        1.4333             0       16.9143     -0.524643             0       15.4949      -4.50126             0       9.82956             0             0      0.142507    7.0757e-14      0.380406        102731        103183        156208    1.2964e-13
    0.0185185       297.171       288.225       1.15115       19.2851       1.37979             0       19.3606      -0.54119             0        16.515      -4.97843             0       10.2111             0             0      0.169273   3.67474e-14      0.264032        102717        103182        155242   6.73281e-14
     0.019019       290.046       288.128       0.14654       21.7863       1.31866             0       21.7394     -0.555309             0       17.4911      -5.43162             0       10.5726             0             0       0.19551   3.95749e-15      0.149959        102703        103181        154306   7.25086e-15
    0.0195195       289.156       288.082      0.115537        22.193       1.06442             0       22.4078     -0.507968             0       17.3524      -5.27772             0       10.4306             0             0       0.20835   2.04395e-15     0.0941297        102695        103182        154121   3.74489e-15
      0.02002         288.3       288.036     0.0853277       22.5828      0.800509             0       23.0599     -0.461746             0       17.1945      -5.12018             0        10.286             0             0       0.22084   2.03021e-16     0.0398272        102686        103182        153955   3.71971e-16
    0.0205205       288.235       288.018     0.0741634       22.5659      0.304719             0       23.3203     -0.442371             0       16.5766      -4.87543             0       10.0812             0             0      0.224904   1.04792e-16     0.0221581        102679        103182        154260   1.91999e-16
     0.021021       288.173       288.001     0.0632951       22.5361     -0.175052             0       23.5657     -0.419002             0       15.9679      -4.61326             0       9.92216             0             0      0.228819    1.0612e-17    0.00513296        102673        103182        154562   1.94432e-17
    0.0215215       288.183       288.002     0.0591778       22.2098     -0.289431             0       23.4671     -0.304535             0       15.5681      -3.95363             0       10.8057             0             0      0.229357   8.76214e-18    0.00279613        102669        103180        154801   1.60539e-17
     0.022022       288.192       288.004     0.0551076       21.8687     -0.403326             0       23.3448     -0.189476             0       15.1838      -3.24337             0       11.7228             0             0      0.229866   7.46857e-18   0.000582498        102666        103178        155048   1.36838e-17
    0.0225225       288.201       288.026       0.05206       21.2062     -0.506712             0       22.7063    -0.0615669             0       15.1353      -1.43275             0       13.3706             0             0       0.22976   1.82619e-17    0.00104557        102662        103176        155456   3.34592e-17
     0.023023        288.21       288.049     0.0490836       20.4896      -0.59327             0        22.015     0.0730637             0        15.177      0.441489             0       15.0288             0             0      0.229637   3.03178e-17    0.00157923        102659        103173        155857   5.55479e-17
    0.0235235       288.206       288.093     0.0475859       18.6524     -0.330815             0       20.2276        0.3471             0       17.0878       3.63521             0       16.9037             0             0      0.229177   6.85588e-17    0.00357699        102657        103169        156106   1.25612e-16
     0.024024       288.201       288.138     0.0464289       16.6838    -0.0373131             0       18.3769      0.615226             0       19.3279       6.76708             0       18.8262             0             0      0.228669    1.1113e-16    0.00578524        102654        103164        156375   2.03611e-16
    0.0245245       288.171       288.197     0.0520309       12.1079      0.871948             0       15.2701      0.766151             0       28.0993       8.67209             0       21.6938             0             0      0.227201   2.39588e-16     0.0121683        102647        103159        157046    4.3897e-16
     0.025025       288.143       288.255     0.0578978       7.57528        1.7481             0       12.1753      0.902443             0       37.1869       10.3952             0       24.6249             0             0      0.225691     3.713e-16     0.0187354        102640        103154        157715   6.80291e-16
    0.0255255       288.162       288.306      0.068797       3.86568       1.99508             0       9.31025      0.760704             0        52.283       8.66174             0       28.7618             0             0      0.223376   5.64841e-16     0.0287994        102627        103147        158336   1.03489e-15
     0.026026       288.184       288.355     0.0795663      0.308769        2.1927             0       6.50595      0.612132             0       67.1329       6.85517             0       32.8941             0             0      0.221062   7.55398e-16     0.0388603        102615        103140        158954   1.38403e-15
    0.0265265       288.257       288.384     0.0879656     -0.464548       1.49027             0       4.80924      0.338989             0       77.4949       3.71551             0       36.9419             0             0      0.218761   8.91574e-16     0.0488642        102603        103133        159525   1.63353e-15
     0.027027       288.329       288.412     0.0960786      -1.22291      0.801823             0       3.14852     0.0607616             0       87.2466       0.56538             0       40.9421             0             0      0.216436   1.02313e-15     0.0589738        102592        103125        160130   1.87457e-15
    0.0275275       288.388       288.429     0.0991751      -1.71929      0.358269             0       2.11847     -0.306528             0       86.3079      -2.76828             0       44.1092             0             0      0.213685   1.07383e-15     0.0709344        102579        103117        161339   1.96746e-15
     0.028028       288.446       288.446      0.102089      -2.22503    -0.0746551             0       1.10661     -0.675954             0       84.9541      -6.08232             0       47.1795             0             0      0.210942   1.12236e-15     0.0828596        102567        103109        162590   2.05637e-15
    0.0285285       288.466       288.458       0.10192      -2.88844     -0.328382             0      0.401588       -1.0814             0       76.6031      -9.06553             0       48.6161             0             0      0.208337   1.13428e-15     0.0941867        102556        103102        164531   2.07821e-15
     0.029029       288.483       288.471      0.101625      -3.53799     -0.578695             0     -0.298624      -1.48508             0       68.1264      -11.9456             0       49.9523             0             0      0.205811   1.14577e-15      0.105169        102544        103095        166501   2.09927e-15
    0.0295295       288.453        288.48     0.0992692      -3.96234     -0.773548             0     -0.920682      -1.86008             0       57.6073      -13.1511             0       49.6564             0             0      0.204575   1.15029e-15      0.110543        102532        103089        168931   2.10754e-15
      0.03003       288.423        288.49     0.0968742      -4.37669     -0.967476             0      -1.53897      -2.23184             0       47.1887      -14.2336             0       49.2828             0             0      0.203391   1.15469e-15      0.115691        102520        103084        171364   2.11561e-15
    0.0305305       288.391       288.498     0.0938565      -4.63414       -1.1469             0      -2.09827      -2.55294             0       38.3449      -13.3885             0       47.6926             0             0      0.203022   1.15731e-15      0.117296        102508        103081        173858   2.12041e-15
     0.031031       288.359       288.506     0.0909411      -4.88579      -1.32331             0        -2.652      -2.86802             0       29.7898      -12.4586             0       46.0484             0             0      0.202675   1.15986e-15      0.118805        102496        103078        176344   2.12508e-15
    0.0315315        288.34        288.51     0.0895725      -5.04968      -1.45402             0      -3.12144      -3.09204             0       25.6035      -10.2462             0       43.5855             0             0      0.202664   1.16138e-15      0.118852        102484        103079        178699   2.12786e-15
     0.032032       288.322       288.514     0.0883138      -5.20498      -1.58376             0      -3.58031      -3.31014             0       21.6957      -8.02546             0       41.0966             0             0      0.202672   1.16286e-15      0.118818        102472        103079        181061   2.13057e-15
    0.0325325       288.308       288.515     0.0886623      -5.23454      -1.69926             0       -3.8846       -3.4415             0       21.8619       -5.6822             0       38.2263             0             0      0.202955   1.16376e-15      0.117587        102461        103082        183523   2.13222e-15
     0.033033       288.294       288.516     0.0890515      -5.25829       -1.8138             0      -4.17649      -3.56732             0       22.1541      -3.37833             0       35.3542             0             0      0.203269   1.16458e-15      0.116221        102450        103085        186026   2.13373e-15
    0.0335335       288.284       288.515     0.0900177      -5.19988      -1.91475             0      -4.29296      -3.61476             0        24.228      -1.63181             0       32.4568             0             0      0.204027   1.16439e-15      0.112924        102440        103090        189108   2.13338e-15
     0.034034       288.274       288.515      0.090965      -5.13352      -2.01703             0      -4.39824      -3.65855             0       26.2915     0.0731554             0       29.5791             0             0      0.204834   1.16402e-15      0.109417        102429        103095        192228    2.1327e-15
    0.0345345       288.267       288.515     0.0916529      -4.95843      -2.13764             0      -4.35018      -3.65225             0       28.2127       1.20847             0       26.9718             0             0      0.206305   1.16111e-15      0.103022        102420        103099        195871   2.12737e-15
     0.035035       288.261       288.515     0.0922605      -4.77706      -2.25969             0      -4.29385      -3.64264             0       30.0475       2.31145             0       24.3891             0             0      0.207826   1.15774e-15     0.0964069        102411        103104        199527    2.1212e-15
    0.0355355       288.259       288.518     0.0918011      -4.51234       -2.4009             0      -4.12753      -3.58909             0       30.7353       2.98475             0       22.1331             0             0      0.210023   1.14833e-15      0.086855        102403        103109        203366   2.10395e-15
     0.036036       288.257        288.52     0.0912115      -4.23934      -2.54299             0      -3.95424      -3.53214             0       31.3065       3.61679             0       19.9021             0             0      0.212218    1.1385e-15      0.077311        102395        103113        207186   2.08595e-15
    0.0365365       288.256       288.525     0.0889433      -3.85971      -2.69634             0      -3.69105       -3.4315             0       30.3754         3.717             0       17.9924             0             0       0.21439   1.12336e-15     0.0678695        102388        103117        210756   2.05821e-15
     0.037037       288.253       288.531     0.0866119      -3.47279      -2.84603             0       -3.4234       -3.3273             0       29.3502       3.77727             0       16.1113             0             0      0.216492   1.10825e-15     0.0587311        102381        103120        214289   2.03051e-15
    0.0375375       288.247       288.539     0.0834886      -2.99467      -2.94979             0      -3.10007      -3.17867             0       27.1458       3.33776             0       14.5888             0             0      0.217721   1.09347e-15     0.0533858        102375        103122        217350   2.00344e-15
     0.038038        288.24       288.548     0.0803581      -2.50877      -3.04838             0      -2.77496      -3.02764             0       24.9294       2.88238             0       13.0992             0             0      0.218892   1.07884e-15     0.0482975        102369        103125        220366   1.97663e-15
    0.0385385       288.231       288.558     0.0771395       -1.9281      -3.08401             0      -2.42823      -2.84728             0       22.5667       2.23402             0       12.0101             0             0      0.219343   1.06587e-15     0.0463333        102364        103126        222853   1.95287e-15
     0.039039       288.222       288.567     0.0739643        -1.343      -3.11394             0      -2.08162      -2.66579             0       20.2562       1.59201             0        10.946             0             0       0.21977   1.05278e-15     0.0444782        102360        103128        225302   1.92889e-15
    0.0395395       288.209       288.575     0.0713012     -0.705396      -3.07646             0      -1.73651      -2.47109             0       18.5615       1.02509             0       10.1767             0             0        0.2199   1.03828e-15      0.043912        102356        103129        227309   1.90232e-15
      0.04004       288.197       288.583     0.0687563    -0.0655206      -3.03584             0      -1.39129      -2.27658             0       16.9194      0.467893             0       9.41789             0             0      0.220017   1.02372e-15     0.0434054        102352        103131        229285   1.87565e-15
    0.0405405       288.183       288.589     0.0675703      0.600465      -2.95912             0      -1.04475       -2.0843             0       15.8828     0.0223993             0       8.77975             0             0      0.219976    1.0086e-15      0.043584        102350        103132        230881   1.84794e-15
     0.041041        288.17       288.594     0.0664553       1.26609      -2.87949             0     -0.696855      -1.89259             0       14.8632     -0.411072             0       8.14319             0             0      0.219928    9.9367e-16     0.0437898        102347        103133        232451   1.82059e-15
    0.0415415       288.158       288.599     0.0661356       1.92774      -2.76732             0     -0.333659      -1.70741             0       14.0341     -0.709956             0       7.52426             0             0      0.219811   9.80923e-16     0.0442995        102346        103134        233720   1.79723e-15
     0.042042       288.146       288.604     0.0658463        2.5875      -2.65302             0      0.030849      -1.52328             0       13.2217     -0.992261             0       6.90429             0             0      0.219693   9.68407e-16      0.044812        102345        103135        234962    1.7743e-15
    0.0425425       288.135       288.609     0.0658883       3.22665      -2.51554             0      0.409668      -1.35053             0       12.5905      -1.09378             0       6.27304             0             0      0.219568   9.58424e-16     0.0453563        102345        103137        235913   1.75601e-15
     0.043043       288.125       288.614     0.0659393       3.86091       -2.3763             0      0.787569      -1.17933             0       12.0073      -1.17894             0       5.64224             0             0      0.219443   9.48727e-16     0.0459011        102346        103138        236839   1.73825e-15
    0.0435435       288.118       288.618     0.0660852       4.44306      -2.21835             0       1.15572      -1.02465             0       11.9354      -1.09022             0        5.0163             0             0      0.219316   9.42076e-16     0.0464513        102347        103140        237516   1.72606e-15
     0.044044       288.112       288.622     0.0661696       5.01907      -2.06048             0       1.52185     -0.871648             0       11.9179     -0.990877             0       4.39593             0             0      0.219187   9.35822e-16     0.0470117        102349        103142        238176    1.7146e-15
    0.0445445       288.112       288.625     0.0656166       5.53144      -1.90346             0       1.86712     -0.736142             0       12.4638     -0.781303             0       3.83335             0             0      0.219034    9.3369e-16     0.0476773        102351        103143        238671   1.71069e-15
     0.045045       288.113       288.628     0.0649038       6.03621      -1.74638             0       2.20787     -0.603224             0       13.0427     -0.569672             0       3.27721             0             0      0.218876   9.32154e-16     0.0483651        102353        103145        239160   1.70788e-15
    0.0455455       288.122       288.629     0.0625751       6.46409       -1.5886             0       2.50286     -0.496464             0        13.956     -0.337254             0       2.78621             0             0      0.218666   9.36644e-16     0.0492768        102356        103147        239591   1.71611e-15