#           y             T         TMean   TPrime2Mean           U_x           U_y           U_z       UMean_x       UMean_y       UMean_z UPrime2Mea... UPrime2Mea... UPrime2Mea... UPrime2Mea... UPrime2Mea... UPrime2Mea...            O2           H2O          C3H8             p         pMean   pPrime2Mean           CO2
         0.04       302.922       289.277       38.1572     -0.701242       21.6374             0      -4.50013      -6.13441             0       21.3456       10.9422             0       62.2205             0             0      0.213944   1.91065e-05     0.0696147        109917        103271   1.22815e+06   3.50066e-05
     0.039975       302.953       289.277       38.1133     -0.656462       21.6664             0      -4.49438      -6.13993             0       21.3739       10.9048             0       62.4614             0             0      0.213971   1.89185e-05     0.0694969        109916        103271   1.22799e+06   3.46622e-05
    0.0399499       302.984       289.276       38.0694     -0.611683       21.6953             0      -4.48864      -6.14545             0       21.4022       10.8673             0       62.7023             0             0      0.213999   1.87305e-05      0.069379        109914        103271   1.22782e+06   3.43177e-05
    0.0399249       303.015       289.276       38.0255     -0.566903       21.7242             0       -4.4829      -6.15097             0       21.4305       10.8298             0       62.9432             0             0      0.214026   1.85425e-05     0.0692611        109913        103270   1.22765e+06   3.39733e-05
    0.0398999       303.047       289.275       37.9816     -0.522124       21.7532             0      -4.47715       -6.1565             0       21.4588       10.7924             0       63.1841             0             0      0.214054   1.83545e-05     0.0691433        109912        103270   1.22748e+06   3.36288e-05
    0.0398749       303.078       289.274       37.9377     -0.477344       21.7821             0      -4.47141      -6.16202             0       21.4871       10.7549             0        63.425             0             0      0.214081   1.81665e-05     0.0690254        109911        103270   1.22732e+06   3.32844e-05
    0.0398498       303.109       289.274       37.8938     -0.432565       21.8111             0      -4.46566      -6.16754             0       21.5154       10.7175             0       63.6659             0             0      0.214109   1.79785e-05     0.0689076        109910        103270   1.22715e+06   3.29399e-05
    0.0398248       303.141       289.273       37.8499     -0.387785         21.84             0      -4.45992      -6.17306             0       21.5436         10.68             0       63.9068             0             0      0.214137   1.77905e-05     0.0687897        109909        103270   1.22698e+06   3.25955e-05
    0.0397998       303.172       289.273        37.806     -0.343006        21.869             0      -4.45418      -6.17859             0       21.5719       10.6425             0       64.1477             0             0      0.214164   1.76025e-05     0.0686718        109908        103269   1.22682e+06    3.2251e-05
    0.0397748       303.203       289.272       37.7621     -0.298226       21.8979             0      -4.44843      -6.18411             0       21.6002       10.6051             0       64.3886             0             0      0.214192   1.74145e-05      0.068554        109907        103269   1.22665e+06   3.19066e-05
    0.0397497       303.235       289.272       37.7182     -0.253446       21.9268             0      -4.44269      -6.18963             0       21.6285       10.5676             0       64.6295             0             0      0.214219   1.72265e-05     0.0684361        109906        103269   1.22648e+06   3.15621e-05
    0.0397247       303.266       289.271       37.6743     -0.208667       21.9558             0      -4.43695      -6.19515             0       21.6568       10.5302             0       64.8704             0             0      0.214247   1.70385e-05     0.0683182        109905        103269   1.22632e+06   3.12176e-05
    0.0396997       303.297        289.27       37.6304     -0.163887       21.9847             0       -4.4312      -6.20067             0       21.6851       10.4927             0       65.1113             0             0      0.214274   1.68505e-05     0.0682004        109904        103269   1.22615e+06   3.08732e-05
    0.0396747       303.328        289.27       37.5865     -0.119108       22.0137             0      -4.42546       -6.2062             0       21.7134       10.4552             0       65.3523             0             0      0.214302   1.66625e-05     0.0680825        109903        103268   1.22598e+06   3.05287e-05
    0.0396496        303.36       289.269       37.5426    -0.0743284       22.0426             0      -4.41972      -6.21172             0       21.7416       10.4178             0       65.5932             0             0      0.214329   1.64745e-05     0.0679646        109901        103268   1.22581e+06   3.01843e-05
    0.0396246       303.391       289.269       37.4987    -0.0295489       22.0715             0      -4.41397      -6.21724             0       21.7699       10.3803             0       65.8341             0             0      0.214357   1.62865e-05     0.0678468        109900        103268   1.22565e+06   2.98398e-05
    0.0395996       303.422       289.268       37.4548     0.0152306       22.1005             0      -4.40823      -6.22276             0       21.7982       10.3429             0        66.075             0             0      0.214385   1.60985e-05     0.0677289        109899        103268   1.22548e+06   2.94954e-05
    0.0395746       303.454       289.268       37.4109     0.0600102       22.1294             0      -4.40248      -6.22829             0       21.8265       10.3054             0       66.3159             0             0      0.214412   1.59105e-05     0.0676111        109898        103268   1.22531e+06   2.91509e-05
    0.0395495       303.485       289.267        37.367       0.10479       22.1584             0      -4.39674      -6.23381             0       21.8548       10.2679             0       66.5568             0             0       0.21444   1.57225e-05     0.0674932        109897        103267   1.22515e+06   2.88065e-05
    0.0395245       303.516       289.266       37.3231      0.149569       22.1873             0        -4.391      -6.23933             0       21.8831       10.2305             0       66.7977             0             0      0.214467   1.55345e-05     0.0673753        109896        103267   1.22498e+06    2.8462e-05
    0.0394995       303.548       289.266       37.2792      0.194349       22.2163             0      -4.38525      -6.24485             0       21.9114        10.193             0       67.0386             0             0      0.214495   1.53465e-05     0.0672575        109895        103267   1.22481e+06   2.81176e-05
    0.0394745       303.579       289.265       37.2353      0.239128       22.2452             0      -4.37951      -6.25038             0       21.9396       10.1556             0       67.2795             0             0      0.214522   1.51585e-05     0.0671396        109894        103267   1.22464e+06   2.77731e-05
    0.0394494        303.61       289.265       37.1914      0.283908       22.2741             0      -4.37377       -6.2559             0       21.9679       10.1181             0       67.5204             0             0       0.21455   1.49705e-05     0.0670217        109893        103267   1.22448e+06   2.74287e-05
    0.0394244       303.641       289.264       37.1475      0.328687       22.3031             0      -4.36802      -6.26142             0       21.9962       10.0806             0       67.7613             0             0      0.214577   1.47825e-05     0.0669039        109892        103266   1.22431e+06   2.70842e-05
    0.0393994       303.673       289.264       37.1036      0.373467        22.332             0      -4.36228      -6.26694             0       22.0245       10.0432             0       68.0022             0             0      0.214605   1.45945e-05      0.066786        109891        103266   1.22414e+06   2.67398e-05
    0.0393744       303.704       289.263       37.0597      0.418246        22.361             0      -4.35653      -6.27247             0       22.0528       10.0057             0       68.2431             0             0      0.214633   1.44065e-05     0.0666681        109890        103266   1.22398e+06   2.63953e-05
    0.0393493       303.735       289.262       37.0158      0.463026       22.3899             0      -4.35079      -6.27799             0       22.0811       9.96827             0        68.484             0             0       0.21466   1.42185e-05     0.0665503        109889        103266   1.22381e+06   2.60509e-05
    0.0393243       303.767       289.262       36.9719      0.507805       22.4189             0      -4.34505      -6.28351             0       22.1094       9.93081             0       68.7249             0             0      0.214688   1.40305e-05     0.0664324        109887        103266   1.22364e+06   2.57064e-05
    0.0392993       303.798       289.261        36.928      0.552585       22.4478             0       -4.3393      -6.28903             0       22.1376       9.89335             0       68.9658             0             0      0.214715   1.38425e-05     0.0663146        109886        103265   1.22347e+06    2.5362e-05
    0.0392743       303.829       289.261       36.8841      0.597364       22.4767             0      -4.33356      -6.29456             0       22.1659       9.85589             0       69.2067             0             0      0.214743   1.36545e-05     0.0661967        109885        103265   1.22331e+06   2.50175e-05
    0.0392492       303.861        289.26       36.8401      0.642144       22.5057             0      -4.32782      -6.30008             0       22.1942       9.81843             0       69.4477             0             0       0.21477   1.34665e-05     0.0660788        109884        103265   1.22314e+06   2.46731e-05
    0.0392242       303.892        289.26       36.7962      0.686923       22.5346             0      -4.32207       -6.3056             0       22.2225       9.78097             0       69.6886             0             0      0.214798   1.32785e-05      0.065961        109883        103265   1.22297e+06   2.43286e-05
    0.0391992       303.923       289.259       36.7523      0.731703       22.5636             0      -4.31633      -6.31112             0       22.2508       9.74352             0       69.9295             0             0      0.214825   1.30905e-05     0.0658431        109882        103265   1.22281e+06   2.39842e-05
    0.0391742       303.954       289.258       36.7084      0.776483       22.5925             0      -4.31058      -6.31665             0       22.2791       9.70606             0       70.1704             0             0      0.214853   1.29025e-05     0.0657252        109881        103264   1.22264e+06   2.36397e-05
    0.0391491       303.986       289.258       36.6645      0.821262       22.6215             0      -4.30484      -6.32217             0       22.3073        9.6686             0       70.4113             0             0       0.21488   1.27145e-05     0.0656074        109880        103264   1.22247e+06   2.32953e-05
    0.0391241       304.017       289.257       36.6206      0.866042       22.6504             0       -4.2991      -6.32769             0       22.3356       9.63114             0       70.6522             0             0      0.214908   1.25265e-05     0.0654895        109879        103264   1.22231e+06   2.29508e-05
    0.0390991       304.048       289.257       36.5767      0.910821       22.6793             0      -4.29335      -6.33321             0       22.3639       9.59368             0       70.8931             0             0      0.214936   1.23385e-05     0.0653716        109878        103264   1.22214e+06   2.26064e-05
    0.0390741        304.08       289.256       36.5328      0.955601       22.7083             0      -4.28761      -6.33874             0       22.3922       9.55622             0        71.134             0             0      0.214963   1.21505e-05     0.0652538        109877        103264   1.22197e+06   2.22619e-05
     0.039049       304.111       289.256       36.4889       1.00038       22.7372             0      -4.28187      -6.34426             0       22.4205       9.51876             0       71.3749             0             0      0.214991   1.19625e-05     0.0651359        109876        103263    1.2218e+06   2.19175e-05
     0.039024       304.142       289.255        36.445       1.04516       22.7662             0      -4.27612      -6.34978             0       22.4488        9.4813             0       71.6158             0             0      0.215018   1.17745e-05     0.0650181        109874        103263   1.22164e+06    2.1573e-05
     0.038999       304.172       289.254       36.4039       1.09003       22.7944             0      -4.27014      -6.35519             0       22.4772       9.44458             0       71.8564             0             0      0.215046   1.15905e-05     0.0649014        109873        103263   1.22147e+06   2.12359e-05
     0.038974       304.167       289.255       36.4296         1.137       22.8054             0      -4.25835      -6.35785             0       22.5087       9.42554             0         72.09             0             0      0.215066   1.15032e-05     0.0648136        109873        103263   1.22137e+06    2.1076e-05
    0.0389489       304.162       289.255       36.4553       1.18397       22.8163             0      -4.24656      -6.36052             0       22.5402        9.4065             0       72.3235             0             0      0.215086   1.14159e-05     0.0647257        109872        103263   1.22126e+06    2.0916e-05
    0.0389239       304.156       289.255        36.481       1.23095       22.8273             0      -4.23477      -6.36319             0       22.5717       9.38745             0        72.557             0             0      0.215107   1.13286e-05     0.0646379        109871        103262   1.22116e+06   2.07561e-05
    0.0388989       304.151       289.256       36.5067       1.27792       22.8382             0      -4.22298      -6.36585             0       22.6031       9.36841             0       72.7906             0             0      0.215127   1.12413e-05     0.0645501        109870        103262   1.22105e+06   2.05961e-05
    0.0388739       304.146       289.256       36.5324        1.3249       22.8492             0       -4.2112      -6.36852             0       22.6346       9.34937             0       73.0241             0             0      0.215148    1.1154e-05     0.0644622        109870        103262   1.22095e+06   2.04361e-05
    0.0388488        304.14       289.256       36.5581       1.37187       22.8602             0      -4.19941      -6.37119             0       22.6661       9.33033             0       73.2577             0             0      0.215168   1.10667e-05     0.0643744        109869        103262   1.22084e+06   2.02762e-05
    0.0388238       304.135       289.256       36.5837       1.41884       22.8711             0      -4.18762      -6.37385             0       22.6976       9.31129             0       73.4912             0             0      0.215188   1.09794e-05     0.0642865        109868        103262   1.22074e+06   2.01162e-05
    0.0387988        304.13       289.257       36.6094       1.46582       22.8821             0      -4.17583      -6.37652             0       22.7291       9.29225             0       73.7247             0             0      0.215209   1.08921e-05     0.0641987        109867        103261   1.22063e+06   1.99563e-05
    0.0387738       304.124       289.257       36.6351       1.51279       22.8931             0      -4.16404      -6.37919             0       22.7606       9.27321             0       73.9583             0             0      0.215229   1.08047e-05     0.0641109        109866        103261   1.22053e+06   1.97963e-05
    0.0387487       304.119       289.257       36.6608       1.55976        22.904             0      -4.15226      -6.38185             0       22.7921       9.25417             0       74.1918             0             0       0.21525   1.07174e-05      0.064023        109866        103261   1.22042e+06   1.96364e-05
    0.0387237       304.114       289.257       36.6865       1.60674        22.915             0      -4.14047      -6.38452             0       22.8236       9.23513             0       74.4254             0             0       0.21527   1.06301e-05     0.0639352        109865        103261   1.22032e+06   1.94764e-05
    0.0386987       304.108       289.258       36.7122       1.65371       22.9259             0      -4.12868      -6.38718             0        22.855       9.21608             0       74.6589             0             0       0.21529   1.05428e-05     0.0638474        109864        103261   1.22022e+06   1.93164e-05
    0.0386737       304.103       289.258       36.7379       1.70068       22.9369             0      -4.11689      -6.38985             0       22.8865       9.19704             0       74.8925             0             0      0.215311   1.04555e-05     0.0637595        109863        103261   1.22011e+06   1.91565e-05
    0.0386486       304.098       289.258       36.7636       1.74766       22.9479             0       -4.1051      -6.39252             0        22.918         9.178             0        75.126             0             0      0.215331   1.03682e-05     0.0636717        109862        103260   1.22001e+06   1.89965e-05
    0.0386236       304.092       289.258       36.7893       1.79463       22.9588             0      -4.09331      -6.39518             0       22.9495       9.15896             0       75.3595             0             0      0.215352   1.02809e-05     0.0635839        109862        103260    1.2199e+06   1.88366e-05
    0.0385986       304.087       289.259        36.815       1.84161       22.9698             0      -4.08153      -6.39785             0        22.981       9.13992             0       75.5931             0             0      0.215372   1.01936e-05      0.063496        109861        103260    1.2198e+06   1.86766e-05
    0.0385736       304.082       289.259       36.8407       1.88858       22.9807             0      -4.06974      -6.40052             0       23.0125       9.12088             0       75.8266             0             0      0.215392   1.01063e-05     0.0634082        109860        103260   1.21969e+06   1.85167e-05
    0.0385485       304.076       289.259       36.8663       1.93555       22.9917             0      -4.05795      -6.40318             0        23.044       9.10184             0       76.0602             0             0      0.215413    1.0019e-05     0.0633203        109859        103260   1.21959e+06   1.83567e-05
    0.0385235       304.071       289.259        36.892       1.98253       23.0027             0      -4.04616      -6.40585             0       23.0755        9.0828             0       76.2937             0             0      0.215433   9.93171e-06     0.0632325        109859        103259   1.21948e+06   1.81967e-05
    0.0384985       304.066        289.26       36.9177        2.0295       23.0136             0      -4.03437      -6.40852             0        23.107       9.06376             0       76.5272             0             0      0.215454    9.8444e-06     0.0631447        109858        103259   1.21938e+06   1.80368e-05
    0.0384735        304.06        289.26       36.9434       2.07647       23.0246             0      -4.02259      -6.41118             0       23.1384       9.04471             0       76.7608             0             0      0.215474    9.7571e-06     0.0630568        109857        103259   1.21927e+06   1.78768e-05
    0.0384484       304.055        289.26       36.9691       2.12345       23.0356             0       -4.0108      -6.41385             0       23.1699       9.02567             0       76.9943             0             0      0.215494    9.6698e-06      0.062969        109856        103259   1.21917e+06   1.77169e-05
    0.0384234        304.05        289.26       36.9948       2.17042       23.0465             0      -3.99901      -6.41651             0       23.2014       9.00663             0       77.2279             0             0      0.215515   9.58249e-06     0.0628812        109855        103259   1.21906e+06   1.75569e-05
    0.0383984       304.044       289.261       37.0205        2.2174       23.0575             0      -3.98722      -6.41918             0       23.2329       8.98759             0       77.4614             0             0      0.215535   9.49519e-06     0.0627933        109855        103259   1.21896e+06    1.7397e-05
    0.0383734       304.039       289.261       37.0462       2.26437       23.0684             0      -3.97543      -6.42185             0       23.2644       8.96855             0       77.6949             0             0      0.215556   9.40788e-06     0.0627055        109854        103258   1.21885e+06    1.7237e-05
    0.0383483       304.034       289.261       37.0719       2.31134       23.0794             0      -3.96364      -6.42451             0       23.2959       8.94951             0       77.9285             0             0      0.215576   9.32058e-06     0.0626177        109853        103258   1.21875e+06    1.7077e-05
    0.0383233       304.029       289.261       37.0976       2.35832       23.0904             0      -3.95186      -6.42718             0       23.3274       8.93047             0        78.162             0             0      0.215597   9.23327e-06     0.0625298        109852        103258   1.21864e+06   1.69171e-05
    0.0382983       304.023       289.262       37.1233       2.40529       23.1013             0      -3.94007      -6.42985             0       23.3589       8.91143             0       78.3956             0             0      0.215617   9.14597e-06      0.062442        109852        103258   1.21854e+06   1.67571e-05
    0.0382733       304.018       289.262        37.149       2.45226       23.1123             0      -3.92828      -6.43251             0       23.3904       8.89239             0       78.6291             0             0      0.215637   9.05867e-06     0.0623541        109851        103258   1.21843e+06   1.65972e-05
    0.0382482       304.013       289.262       37.1746       2.49924       23.1233             0      -3.91649      -6.43518             0       23.4218       8.87335             0       78.8626             0             0      0.215658   8.97136e-06     0.0622663        109850        103257   1.21833e+06   1.64372e-05
    0.0382232       304.007       289.263       37.2003       2.54621       23.1342             0       -3.9047      -6.43785             0       23.4533        8.8543             0       79.0962             0             0      0.215678   8.88406e-06     0.0621785        109849        103257   1.21822e+06   1.62773e-05
    0.0381982       304.002       289.263        37.226       2.59318       23.1452             0      -3.89292      -6.44051             0       23.4848       8.83526             0       79.3297             0             0      0.215699   8.79675e-06     0.0620906        109848        103257   1.21812e+06   1.61173e-05
    0.0381732       303.997       289.263       37.2517       2.64016       23.1561             0      -3.88113      -6.44318             0       23.5163       8.81622             0       79.5633             0             0      0.215719   8.70945e-06     0.0620028        109848        103257   1.21802e+06   1.59573e-05
    0.0381481       303.991       289.263       37.2774       2.68713       23.1671             0      -3.86934      -6.44584             0       23.5478       8.79718             0       79.7968             0             0      0.215739   8.62215e-06      0.061915        109847        103257   1.21791e+06   1.57974e-05
    0.0381231       303.986       289.264       37.3031       2.73411       23.1781             0      -3.85755      -6.44851             0       23.5793       8.77814             0       80.0304             0             0       0.21576   8.53484e-06     0.0618271        109846        103257   1.21781e+06   1.56374e-05
    0.0380981       303.981       289.264       37.3288       2.78108        23.189             0      -3.84576      -6.45118             0       23.6108        8.7591             0       80.2639             0             0       0.21578   8.44754e-06     0.0617393        109845        103256    1.2177e+06   1.54775e-05
    0.0380731       303.975       289.264       37.3545       2.82805          23.2             0      -3.83398      -6.45384             0       23.6423       8.74006             0       80.4974             0             0      0.215801   8.36023e-06     0.0616515        109845        103256    1.2176e+06   1.53175e-05
     0.038048        303.97       289.264       37.3802       2.87503        23.211             0      -3.82219      -6.45651             0       23.6737       8.72102             0        80.731             0             0      0.215821   8.27293e-06     0.0615636        109844        103256   1.21749e+06   1.51575e-05
     0.038023       303.965       289.265       37.4059         2.922       23.2219             0       -3.8104      -6.45918             0       23.7052       8.70198             0       80.9645             0             0      0.215841   8.18562e-06     0.0614758        109843        103256   1.21739e+06   1.49976e-05
     0.037998       303.958       289.265       37.4383        2.9693       23.2312             0      -3.79816      -6.46156             0       23.7355       8.68417             0       81.1964             0             0      0.215862   8.10024e-06     0.0613893        109842        103256   1.21729e+06   1.48411e-05
     0.037973        303.93       289.266       37.5479       3.02032       23.2209             0      -3.78071      -6.46071             0       23.7513       8.68058             0       81.4088             0             0      0.215878   8.03691e-06     0.0613182        109842        103256   1.21724e+06   1.47251e-05
    0.0379479       303.903       289.268       37.6576       3.07134       23.2105             0      -3.76327      -6.45986             0       23.7671       8.67699             0       81.6213             0             0      0.215895   7.97359e-06     0.0612472        109841        103255   1.21719e+06   1.46091e-05
    0.0379229       303.875       289.269       37.7672       3.12236       23.2002             0      -3.74583      -6.45901             0        23.783       8.67339             0       81.8337             0             0      0.215911   7.91026e-06     0.0611761        109841        103255   1.21715e+06   1.44931e-05
    0.0378979       303.848       289.271       37.8769       3.17338       23.1899             0      -3.72838      -6.45816             0       23.7988        8.6698             0       82.0462             0             0      0.215928   7.84694e-06      0.061105        109840        103255    1.2171e+06   1.43771e-05
    0.0378729        303.82       289.272       37.9865        3.2244       23.1795             0      -3.71094      -6.45732             0       23.8146       8.66621             0       82.2587             0             0      0.215944   7.78361e-06      0.061034        109840        103255   1.21705e+06    1.4261e-05
    0.0378478       303.793       289.273       38.0961       3.27543       23.1692             0      -3.69349      -6.45647             0       23.8305       8.66262             0       82.4711             0             0       0.21596   7.72029e-06     0.0609629        109839        103255   1.21701e+06    1.4145e-05
    0.0378228       303.766       289.275       38.2058       3.32645       23.1589             0      -3.67605      -6.45562             0       23.8463       8.65903             0       82.6836             0             0      0.215977   7.65696e-06     0.0608918        109839        103255   1.21696e+06    1.4029e-05
    0.0377978       303.738       289.276       38.3154       3.37747       23.1486             0       -3.6586      -6.45477             0       23.8622       8.65544             0        82.896             0             0      0.215993   7.59364e-06     0.0608208        109838        103255   1.21691e+06    1.3913e-05
    0.0377728       303.711       289.278       38.4251       3.42849       23.1382             0      -3.64116      -6.45392             0        23.878       8.65185             0       83.1085             0             0       0.21601   7.53031e-06     0.0607497        109838        103254   1.21686e+06   1.37969e-05
    0.0377477       303.683       289.279       38.5347       3.47951       23.1279             0      -3.62371      -6.45307             0       23.8938       8.64825             0        83.321             0             0      0.216026   7.46699e-06     0.0606786        109837        103254   1.21682e+06   1.36809e-05
    0.0377227       303.656        289.28       38.6444       3.53053       23.1176             0      -3.60627      -6.45222             0       23.9097       8.64466             0       83.5334             0             0      0.216043   7.40366e-06     0.0606076        109837        103254   1.21677e+06   1.35649e-05