#           y             T         TMean   TPrime2Mean           U_x           U_y           U_z       UMean_x       UMean_y       UMean_z UPrime2Mea... UPrime2Mea... UPrime2Mea... UPrime2Mea... UPrime2Mea... UPrime2Mea...            O2           H2O          C3H8             p         pMean   pPrime2Mean           CO2
         0.02       948.872       346.681       48969.5       23.3454       2.58441             0       21.7557     -0.340647             0       38.5231      -2.99408             0       23.4061             0             0     0.0419422     0.0207435      0.604726        110095        103307    1.1693e+06      0.038006
    0.0201677       959.336       344.971       46971.3        23.272       2.79448             0       21.7692     -0.324862             0       38.3884      -2.38752             0       23.7656             0             0     0.0396365     0.0216183      0.605768        110102        103306   1.17052e+06     0.0396088
    0.0203353       969.801       343.262         44973       23.1986       3.00456             0       21.7826     -0.309077             0       38.2537      -1.78097             0       24.1251             0             0     0.0373309     0.0224931       0.60681        110109        103306   1.17174e+06     0.0412116
     0.020503       980.265       341.552       42974.8       23.1252       3.21463             0       21.7961     -0.293292             0        38.119      -1.17442             0       24.4846             0             0     0.0350253     0.0233679      0.607852        110116        103306   1.17296e+06     0.0428143
    0.0206707       990.729       339.842       40976.6       23.0518       3.42471             0       21.8095     -0.277507             0       37.9843     -0.567864             0       24.8441             0             0     0.0327196     0.0242427      0.608894        110124        103305   1.17418e+06     0.0444171
    0.0208383       1001.19       338.133       38978.3       22.9783       3.63479             0        21.823     -0.261722             0       37.8496     0.0386891             0       25.2036             0             0      0.030414     0.0251174      0.609936        110131        103305    1.1754e+06     0.0460198
     0.021006       1011.56       336.432       36993.5       22.8969       3.84481             0       21.8311     -0.245528             0       37.7204      0.653306             0       25.5648             0             0     0.0281172     0.0259977      0.610883        110138        103304   1.17662e+06     0.0476327
    0.0211737       1019.26       334.956       35368.7       22.5992       4.05351             0       21.6959     -0.218329             0       37.7406       1.48496             0       25.9723             0             0      0.026057     0.0270265      0.609279        110144        103304   1.17783e+06     0.0495176
    0.0213413       1026.96        333.48         33744       22.3014        4.2622             0       21.5608     -0.191129             0       37.7609       2.31661             0       26.3798             0             0     0.0239968     0.0280553      0.607674        110150        103304   1.17904e+06     0.0514026
     0.021509       1034.66       332.005       32119.2       22.0037       4.47089             0       21.4256      -0.16393             0       37.7811       3.14826             0       26.7873             0             0     0.0219366     0.0290841      0.606069        110156        103303   1.18025e+06     0.0532875
    0.0216767       1042.36       330.529       30494.4        21.706       4.67958             0       21.2904      -0.13673             0       37.8014       3.97992             0       27.1947             0             0     0.0198764     0.0301129      0.604465        110163        103303   1.18146e+06     0.0551725
    0.0218443       1050.06       329.054       28869.6       21.4082       4.88827             0       21.1553     -0.109531             0       37.8216       4.81157             0       27.6022             0             0     0.0178162     0.0311417       0.60286        110169        103302   1.18267e+06     0.0570574
     0.022012       1056.68        327.59       27267.6       21.0831       5.09772             0       21.0093    -0.0833999             0       37.8372       5.64452             0       28.0128             0             0     0.0159065     0.0321174      0.601147        110175        103302   1.18387e+06      0.058845
    0.0221797       1049.27       326.277       25959.4       20.4024       5.31693             0        20.724     -0.071113             0        37.792       6.49429             0       28.4636             0             0     0.0159459     0.0324043      0.598029        110178        103301   1.18506e+06     0.0593708
    0.0223473       1041.86       324.963       24651.3       19.7218       5.53613             0       20.4386    -0.0588261             0       37.7469       7.34406             0       28.9144             0             0     0.0159854     0.0326913      0.594911        110181        103301   1.18624e+06     0.0598966
     0.022515       1034.45        323.65       23343.2       19.0411       5.75534             0       20.1532    -0.0465392             0       37.7017       8.19382             0       29.3651             0             0     0.0160248     0.0329783      0.591793        110185        103301   1.18742e+06     0.0604224
    0.0226827       1027.04       322.337       22035.1       18.3605       5.97454             0       19.8679    -0.0342523             0       37.6566       9.04359             0       29.8159             0             0     0.0160643     0.0332653      0.588676        110188        103300   1.18861e+06     0.0609482
    0.0228504       1019.64       321.024         20727       17.6798       6.19375             0       19.5825    -0.0219654             0       37.6114       9.89336             0       30.2667             0             0     0.0161037     0.0335523      0.585558        110191        103300   1.18979e+06      0.061474
     0.023018       1009.57       319.734       19453.5       17.0038       6.39404             0       19.2854    -0.0129107             0       37.5416       10.7222             0       30.7383             0             0     0.0166298      0.033674       0.58202        110194        103299   1.19097e+06     0.0616971
    0.0231857       977.466       318.633       18466.8       16.3664       6.43725             0       18.8911     -0.030701             0       37.2671        11.377             0        31.383             0             0     0.0211982     0.0324236      0.574994        110195        103299   1.19212e+06      0.059406
    0.0233534        945.36       317.532         17480        15.729       6.48045             0       18.4968    -0.0484913             0       36.9926       12.0317             0       32.0277             0             0     0.0257666     0.0311731      0.567968        110196        103298   1.19328e+06     0.0571149
     0.023521       913.254        316.43       16493.3       15.0915       6.52366             0       18.1025    -0.0662817             0       36.7182       12.6865             0       32.6723             0             0      0.030335     0.0299226      0.560942        110197        103298   1.19444e+06     0.0548238
    0.0236887       881.148       315.329       15506.6       14.4541       6.56687             0       17.7083     -0.084072             0       36.4437       13.3413             0        33.317             0             0     0.0349034     0.0286722      0.553916        110198        103298   1.19559e+06     0.0525328
    0.0238564       849.042       314.228       14519.9       13.8167       6.61008             0        17.314     -0.101862             0       36.1692       13.9961             0       33.9617             0             0     0.0394718     0.0274217       0.54689        110198        103297   1.19675e+06     0.0502417
     0.024024       815.446       313.156       13568.4       13.2408       6.63476             0       16.9194     -0.124994             0       35.9244        14.605             0       34.6432             0             0     0.0445938     0.0260498      0.538703        110199        103297   1.19791e+06     0.0477281
    0.0241917       772.943       312.254         12827       13.0329       6.54872             0       16.5233     -0.180062             0       35.8569       14.9392             0       35.5449             0             0     0.0530257     0.0239521      0.523576        110198        103296   1.19914e+06     0.0438847
    0.0243594       730.439       311.352       12085.7       12.8251       6.46267             0       16.1271     -0.235129             0       35.7894       15.2735             0       36.4466             0             0     0.0614577     0.0218543       0.50845        110197        103296   1.20037e+06     0.0400412
     0.024527       687.936       310.451       11344.4       12.6172       6.37663             0        15.731     -0.290197             0       35.7219       15.6077             0       37.3483             0             0     0.0698896     0.0197566      0.493323        110196        103296    1.2016e+06     0.0361977
    0.0246947       645.432       309.549       10603.1       12.4094       6.29059             0       15.3349     -0.345264             0       35.6544        15.942             0         38.25             0             0     0.0783216     0.0176588      0.478196        110195        103295   1.20283e+06     0.0323543
    0.0248624       602.929       308.647       9861.77       12.2015       6.20454             0       14.9387     -0.400332             0       35.5869       16.2762             0       39.1517             0             0     0.0867535     0.0155611       0.46307        110194        103295   1.20406e+06     0.0285108
      0.02503        563.19       307.773       9152.85       12.0475       6.13399             0       14.5582     -0.460908             0       35.5112       16.5736             0       40.1036             0             0     0.0950095     0.0135808      0.447502        110193        103294   1.20534e+06     0.0248826
    0.0251977        536.12       307.024       8592.42       12.1405       6.13441             0        14.249     -0.546729             0        35.398       16.7024             0       41.2857             0             0      0.102459      0.012139      0.429914        110189        103293   1.20682e+06     0.0222409
    0.0253654        509.05       306.275       8031.98       12.2336       6.13484             0       13.9399      -0.63255             0       35.2848       16.8311             0       42.4679             0             0      0.109908     0.0106972      0.412326        110185        103293    1.2083e+06     0.0195992
     0.025533       481.981       305.526       7471.55       12.3266       6.13527             0       13.6307     -0.718371             0       35.1716       16.9598             0         43.65             0             0      0.117358    0.00925536      0.394738        110181        103292   1.20978e+06     0.0169575
    0.0257007       454.911       304.777       6911.12       12.4196       6.13569             0       13.3216     -0.804192             0       35.0584       17.0886             0       44.8321             0             0      0.124807    0.00781354       0.37715        110177        103291   1.21127e+06     0.0143159
    0.0258684       427.841       304.028       6350.69       12.5126       6.13612             0       13.0124     -0.890013             0       34.9453       17.2173             0       46.0143             0             0      0.132256    0.00637172      0.359562        110173        103290   1.21275e+06     0.0116742
     0.026036       404.381       303.313       5829.25       12.6394        6.1731             0       12.7152      -0.97923             0       34.7376       17.3179             0       47.2484             0             0      0.139051    0.00512087      0.342862        110168        103289   1.21428e+06     0.0093824
    0.0262037       394.105       302.721       5450.24       12.8893       6.34358             0       12.4614      -1.08085             0       34.1848       17.3155             0       48.6723             0             0      0.143452    0.00456758      0.329405        110161        103288     1.216e+06    0.00836867
    0.0263714       383.829       302.129       5071.24       13.1393       6.51407             0       12.2076      -1.18247             0        33.632       17.3131             0       50.0962             0             0      0.147854     0.0040143      0.315948        110154        103287   1.21772e+06    0.00735494
     0.026539       373.552       301.536       4692.23       13.3892       6.68455             0       11.9538      -1.28409             0       33.0792       17.3108             0       51.5201             0             0      0.152255    0.00346101       0.30249        110147        103286   1.21944e+06    0.00634121
    0.0267067       363.276       300.944       4313.23       13.6392       6.85504             0          11.7      -1.38571             0       32.5264       17.3084             0        52.944             0             0      0.156657    0.00290772      0.289033        110140        103285   1.22116e+06    0.00532748
    0.0268744           353       300.352       3934.22       13.8891       7.02552             0       11.4462      -1.48732             0       31.9736        17.306             0       54.3679             0             0      0.161058    0.00235443      0.275576        110133        103284   1.22288e+06    0.00431375
     0.027042       344.344       299.803        3595.2       14.1706       7.23702             0       11.1868      -1.58972             0       31.4085        17.274             0       55.8418             0             0      0.165072    0.00189155      0.262875        110126        103282   1.22461e+06    0.00346566
    0.0272097       340.528       299.381       3375.64       14.5464       7.57108             0       10.9105      -1.69443             0       30.8069       17.1533             0        57.465             0             0      0.167929    0.00169881      0.252434        110118        103281   1.22639e+06    0.00311253
    0.0273774       336.713       298.959       3156.08       14.9221       7.90513             0       10.6342      -1.79914             0       30.2054       17.0326             0       59.0882             0             0      0.170785    0.00150607      0.241992        110109        103280   1.22817e+06     0.0027594
     0.027545       332.898       298.537       2936.52       15.2978       8.23919             0       10.3579      -1.90385             0       29.6038       16.9119             0       60.7113             0             0      0.173642    0.00131333      0.231551        110101        103278   1.22995e+06    0.00240626
    0.0277127       329.082       298.116       2716.95       15.6736       8.57324             0       10.0816      -2.00857             0       29.0022       16.7912             0       62.3345             0             0      0.176499    0.00112059       0.22111        110093        103277   1.23173e+06    0.00205313
    0.0278804       325.267       297.694       2497.39       16.0493       8.90729             0       9.80529      -2.11328             0       28.4006       16.6705             0       63.9577             0             0      0.179355    0.00092785      0.210669        110085        103275    1.2335e+06    0.00169999
     0.028048       322.026       297.304       2302.51       16.4176       9.27522             0       9.52537      -2.21937             0       27.8271       16.5284             0       65.6017             0             0      0.182031   0.000769048      0.200666        110077        103274   1.23523e+06    0.00140904
    0.0282157       320.214       296.993       2169.05       16.7671       9.72746             0       9.23644      -2.32891             0       27.3234       16.3331             0       67.2976             0             0      0.184256   0.000694735      0.191752        110072        103272   1.23683e+06    0.00127288
    0.0283834       318.402       296.681       2035.59       17.1166       10.1797             0       8.94752      -2.43844             0       26.8198       16.1378             0       68.9935             0             0      0.186482   0.000620422      0.182838        110067        103271   1.23843e+06    0.00113673
    0.0285511       316.591        296.37       1902.13       17.4662       10.6319             0        8.6586      -2.54797             0       26.3162       15.9424             0       70.6894             0             0      0.188708   0.000546109      0.173924        110062        103269   1.24003e+06    0.00100057
    0.0287187       314.779       296.059       1768.68       17.8157       11.0842             0       8.36967      -2.65751             0       25.8126       15.7471             0       72.3853             0             0      0.190933   0.000471797      0.165011        110057        103268   1.24162e+06   0.000864419
    0.0288864       312.967       295.748       1635.22       18.1653       11.5364             0       8.08075      -2.76704             0       25.3089       15.5517             0       74.0812             0             0      0.193159   0.000397484      0.156097        110052        103266   1.24322e+06   0.000728264
    0.0290541       311.419       295.458       1516.58       18.4414       11.9853             0        7.7929      -2.87765             0       24.8415       15.3397             0       75.7429             0             0      0.195238   0.000336488      0.147683        110048        103264   1.24465e+06   0.000616508
    0.0292217       310.425       295.214       1429.07       18.5635       12.4273             0       7.50732      -2.99053             0       24.4502       15.0926             0       77.3324             0             0       0.19701   0.000303481       0.14032        110046        103263   1.24574e+06   0.000556033
    0.0293894       309.431        294.97       1341.56       18.6855       12.8692             0       7.22174      -3.10341             0       24.0588       14.8455             0        78.922             0             0      0.198781   0.000270474      0.132957        110045        103262   1.24682e+06   0.000495559
    0.0295571       308.438       294.727       1254.06       18.8075       13.3112             0       6.93616      -3.21629             0       23.6675       14.5984             0       80.5116             0             0      0.200553   0.000237467      0.125594        110043        103260   1.24791e+06   0.000435085
    0.0297247       307.444       294.483       1166.55       18.9296       13.7531             0       6.65058      -3.32917             0       23.2761       14.3513             0       82.1012             0             0      0.202324   0.000204461      0.118231        110041        103259   1.24899e+06    0.00037461
    0.0298924        306.45       294.239       1079.05       19.0516        14.195             0         6.365      -3.44205             0       22.8848       14.1042             0       83.6907             0             0      0.204095   0.000171454      0.110868        110039        103257   1.25008e+06   0.000314136
    0.0300601       305.663       294.012        1002.1       19.0741       14.6034             0        6.0837      -3.55457             0       22.5666       13.8452             0       85.1856             0             0      0.205629   0.000144935      0.104471        110036        103256   1.25094e+06   0.000265547
    0.0302277       305.247       293.817        944.06       18.9181       14.9517             0       5.81006      -3.66643             0       22.3793       13.5648             0       86.5106             0             0      0.206738   0.000130039     0.0998037        110030        103254   1.25143e+06   0.000238255
    0.0303954        304.83       293.622       886.021       18.7622          15.3             0       5.53642      -3.77829             0       22.1921       13.2844             0       87.8357             0             0      0.207847   0.000115142     0.0951365        110025        103253   1.25191e+06   0.000210962
    0.0305631       304.414       293.426       827.983       18.6063       15.6482             0       5.26278      -3.89015             0       22.0048        13.004             0       89.1608             0             0      0.208955   0.000100246     0.0904694        110019        103252   1.25239e+06    0.00018367
    0.0307307       303.998       293.231       769.945       18.4503       15.9965             0       4.98914      -4.00201             0       21.8176       12.7236             0       90.4858             0             0      0.210064     8.535e-05     0.0858023        110013        103251   1.25287e+06   0.000156377
    0.0308984       303.581       293.036       711.906       18.2944       16.3448             0        4.7155      -4.11387             0       21.6303       12.4432             0       91.8109             0             0      0.211173   7.04538e-05     0.0811351        110008        103249   1.25335e+06   0.000129085
    0.0310661       303.375       292.856       661.768       18.0623       16.6614             0       4.44804      -4.22305             0       21.5335        12.165             0       92.9992             0             0      0.212012   5.93743e-05     0.0775992        110001        103248   1.25361e+06   0.000108785
    0.0312337       303.491       292.702       623.777       17.7129       16.9292             0        4.1901      -4.32813             0       21.5758       11.8903             0       93.9772             0             0      0.212437   5.41642e-05      0.075803        109993        103247   1.25354e+06   9.92389e-05
    0.0314014       303.608       292.547       585.787       17.3635       17.1971             0       3.93215       -4.4332             0       21.6181       11.6156             0       94.9552             0             0      0.212863   4.89542e-05     0.0740068        109985        103246   1.25346e+06   8.96932e-05
    0.0315691       303.724       292.393       547.797       17.0141        17.465             0        3.6742      -4.53827             0       21.6604       11.3409             0       95.9331             0             0      0.213288   4.37441e-05     0.0722106        109976        103245   1.25339e+06   8.01474e-05
    0.0317367       303.841       292.238       509.806       16.6647       17.7329             0       3.41626      -4.64335             0       21.7027       11.0662             0       96.9111             0             0      0.213714   3.85341e-05     0.0704144        109968        103245   1.25331e+06   7.06016e-05
    0.0319044       303.957       292.083       471.816       16.3154       18.0008             0       3.15831      -4.74842             0        21.745       10.7915             0       97.8891             0             0      0.214139    3.3324e-05     0.0686182        109960        103244   1.25324e+06   6.10558e-05
    0.0320721       304.294       291.945         439.9       15.9328        18.253             0       2.90738      -4.84897             0       21.8641       10.5313             0       98.7084             0             0      0.214428   2.95732e-05     0.0673994        109953        103243   1.25301e+06   5.41835e-05
    0.0322397       304.922       291.827       416.041       15.5062       18.4843             0       2.66576      -4.94353             0       22.0852       10.2903             0       99.3173             0             0      0.214537   2.77577e-05     0.0669465        109946        103242   1.25256e+06   5.08574e-05
    0.0324074        305.55       291.709       392.182       15.0797       18.7157             0       2.42414      -5.03809             0       22.3062       10.0493             0       99.9261             0             0      0.214645   2.59423e-05     0.0664936        109940        103241   1.25211e+06   4.75312e-05
    0.0325751       306.179       291.591       368.324       14.6531        18.947             0       2.18252      -5.13265             0       22.5272       9.80824             0       100.535             0             0      0.214754   2.41269e-05     0.0660407        109934        103241   1.25167e+06    4.4205e-05
    0.0327427       306.807       291.474       344.465       14.2266       19.1783             0        1.9409       -5.2272             0       22.7482       9.56723             0       101.144             0             0      0.214862   2.23115e-05     0.0655878        109928        103240   1.25122e+06   4.08788e-05
    0.0329104       307.435       291.356       320.606          13.8       19.4096             0       1.69928      -5.32176             0       22.9692       9.32622             0       101.753             0             0      0.214971   2.04961e-05     0.0651349        109922        103239   1.25077e+06   3.75526e-05
    0.0330781       308.148       291.252       300.916       13.3724       19.6386             0       1.46673      -5.41081             0        23.193       9.13342             0       102.175             0             0      0.215035   1.90741e-05     0.0648682        109917        103239   1.25024e+06   3.49474e-05
    0.0332457       308.957       291.164        286.01       12.9438       19.8651             0       1.24459      -5.49354             0         23.42       8.99595             0       102.385             0             0       0.21505   1.81037e-05     0.0648151        109914        103238   1.24962e+06   3.31694e-05
    0.0334134       309.766       291.076       271.104       12.5151       20.0915             0       1.02245      -5.57627             0        23.647       8.85847             0       102.594             0             0      0.215064   1.71333e-05      0.064762        109911        103238   1.24899e+06   3.13914e-05
    0.0335811       310.575       290.988       256.199       12.0864       20.3179             0      0.800304        -5.659             0        23.874         8.721             0       102.803             0             0      0.215079   1.61628e-05     0.0647089        109907        103238   1.24836e+06   2.96133e-05
    0.0337487       311.384         290.9       241.293       11.6578       20.5444             0      0.578163      -5.74173             0        24.101       8.58352             0       103.013             0             0      0.215093   1.51924e-05     0.0646559        109904        103237   1.24774e+06   2.78353e-05
    0.0339164       312.193       290.812       226.387       11.2291       20.7708             0      0.356021      -5.82445             0        24.328       8.44604             0       103.222             0             0      0.215108    1.4222e-05     0.0646028        109900        103237   1.24711e+06   2.60573e-05
    0.0340841       312.986       290.736       214.286       10.8165       21.0039             0       0.14532      -5.90038             0       24.4948       8.37992             0       103.224             0             0      0.215077   1.38195e-05     0.0647411        109897        103237    1.2465e+06   2.53199e-05
    0.0342518       313.761       290.671       204.975         10.42       21.2436             0    -0.0540076      -5.96954             0       24.6016       8.38471             0       103.019             0             0      0.215001   1.39816e-05     0.0650697        109894        103237   1.24591e+06   2.56168e-05
    0.0344194       314.537       290.606       195.663       10.0235       21.4832             0     -0.253336      -6.03869             0       24.7085       8.38951             0       102.814             0             0      0.214925   1.41436e-05     0.0653984        109890        103237   1.24531e+06   2.59138e-05
    0.0345871       315.312       290.541       186.352       9.62696       21.7229             0     -0.452664      -6.10785             0       24.8153        8.3943             0       102.609             0             0      0.214849   1.43057e-05      0.065727        109887        103237   1.24472e+06   2.62107e-05
    0.0347548       316.088       290.476        177.04       9.23043       21.9626             0     -0.651991      -6.17701             0       24.9222        8.3991             0       102.404             0             0      0.214773   1.44678e-05     0.0660556        109884        103237   1.24413e+06   2.65077e-05
    0.0349224       316.863       290.411       167.729        8.8339       22.2022             0     -0.851319      -6.24617             0       25.0291       8.40389             0       102.199             0             0      0.214697   1.46299e-05     0.0663842        109880        103237   1.24353e+06   2.68047e-05
    0.0350901       317.579       290.355       160.282       8.46088       22.4412             0      -1.04022      -6.30622             0       25.0746       8.46314             0       101.771             0             0       0.21458   1.55243e-05     0.0668864        109878        103237   1.24305e+06   2.84434e-05
    0.0352578       318.244       290.308       154.442        8.1081       22.6796             0      -1.22013      -6.35842             0       25.0672       8.56928             0       101.152             0             0      0.214426   1.70493e-05      0.067538        109877        103237   1.24265e+06   3.12375e-05