#           y             T         TMean   TPrime2Mean           U_x           U_y           U_z       UMean_x       UMean_y       UMean_z UPrime2Mea... UPrime2Mea... UPrime2Mea... UPrime2Mea... UPrime2Mea... UPrime2Mea...            O2           H2O          C3H8             p         pMean   pPrime2Mean           CO2
         0.03       1899.98       344.554       83382.9       69.4276      -3.19521             0       5.71837       1.40279             0       91.0868       6.86545             0       51.4449             0             0    4.4332e-09     0.0945388     0.0295421        109739        103298   1.05106e+06      0.173213
    0.0301702       1899.98       344.396       83179.1       69.2257      -2.83301             0       5.69087       1.44952             0       91.4702       7.31374             0       51.4862             0             0   4.31343e-09      0.094584     0.0290783        109741        103298   1.05083e+06      0.173295
    0.0303403       1899.98       344.239       82975.3       69.0238      -2.47081             0       5.66337       1.49625             0       91.8535       7.76204             0       51.5275             0             0   4.19367e-09     0.0946291     0.0286145        109743        103299    1.0506e+06      0.173378
    0.0305105       1899.98       344.081       82771.5       68.8219       -2.1086             0       5.63587       1.54298             0       92.2369       8.21033             0       51.5689             0             0    4.0739e-09     0.0946743     0.0281507        109746        103299   1.05037e+06      0.173461
    0.0306807       1899.97       343.923       82567.7         68.62       -1.7464             0       5.60836       1.58971             0       92.6202       8.65862             0       51.6102             0             0   3.95413e-09     0.0947195     0.0276869        109748        103299   1.05014e+06      0.173544
    0.0308509       1899.97       343.765       82363.9       68.4181       -1.3842             0       5.58086       1.63645             0       93.0036       9.10691             0       51.6515             0             0   3.83436e-09     0.0947647     0.0272231        109750        103300   1.04991e+06      0.173627
     0.031021       1899.97       343.605       82156.4       68.2226      -1.02184             0       5.55423        1.6833             0          93.3        9.5393             0       51.6798             0             0   3.70888e-09     0.0948073     0.0267852        109753        103300   1.04969e+06      0.173705
    0.0311912       1899.97        343.43       81922.6       68.0732     -0.658352             0       5.53381       1.73103             0       92.9798       9.85881             0       51.6153             0             0   3.54279e-09     0.0948321     0.0265313        109756        103301   1.04956e+06       0.17375
    0.0313614       1899.97       343.255       81688.7       67.9238     -0.294866             0       5.51339       1.77876             0       92.6595       10.1783             0       51.5509             0             0   3.37671e-09     0.0948568     0.0262775        109758        103301   1.04943e+06      0.173795
    0.0315315       1899.97        343.08       81454.9       67.7744     0.0686195             0       5.49297       1.82649             0       92.3393       10.4978             0       51.4864             0             0   3.21062e-09     0.0948815     0.0260236        109761        103302    1.0493e+06      0.173841
    0.0317017       1899.97       342.905         81221        67.625      0.432105             0       5.47255       1.87421             0       92.0191       10.8173             0       51.4219             0             0   3.04454e-09     0.0949063     0.0257698        109764        103302   1.04917e+06      0.173886
    0.0318719       1899.97        342.73       80987.1       67.4756      0.795591             0       5.45213       1.92194             0       91.6989       11.1369             0       51.3575             0             0   2.87846e-09      0.094931     0.0255159        109767        103302   1.04903e+06      0.173931
     0.032042       1899.96        342.55         80745       67.2689       1.14349             0       5.43375       1.96941             0       91.3123       11.4382             0       51.2689             0             0   2.73305e-09     0.0949489     0.0253318        109770        103303   1.04893e+06      0.173964
    0.0322122       1899.96       342.356       80477.5       66.8874        1.4439             0       5.42163        2.0161             0       90.7235       11.6842             0        51.107             0             0   2.65066e-09     0.0949462     0.0253602        109773        103304   1.04892e+06      0.173959
    0.0323824       1899.96       342.162         80210       66.5059        1.7443             0        5.4095       2.06279             0       90.1347       11.9301             0        50.945             0             0   2.56827e-09     0.0949434     0.0253886        109776        103304    1.0489e+06      0.173954
    0.0325526       1899.96       341.968       79942.6       66.1243        2.0447             0       5.39738       2.10947             0       89.5459       12.1761             0       50.7831             0             0   2.48589e-09     0.0949406      0.025417        109778        103305   1.04889e+06      0.173949
    0.0327227       1899.95       341.774       79675.1       65.7428       2.34511             0       5.38525       2.15616             0       88.9571        12.422             0       50.6211             0             0    2.4035e-09     0.0949379     0.0254454        109781        103305   1.04887e+06      0.173944
    0.0328929       1899.95        341.58       79407.6       65.3613       2.64551             0       5.37312       2.20285             0       88.3683        12.668             0       50.4592             0             0   2.32111e-09     0.0949351     0.0254737        109784        103306   1.04886e+06      0.173939
    0.0330631       1899.95       341.377       79122.8       64.9373       2.93169             0       5.36275       2.24834             0       87.8016       12.8887             0       50.2636             0             0   2.20502e-09     0.0949257     0.0255703        109786        103307   1.04889e+06      0.173922
    0.0332332       1899.94       341.159       78808.4       64.4413       3.19371             0       5.35534       2.29179             0       87.2723       13.0665             0       50.0109             0             0   2.03169e-09      0.094905     0.0257826        109788        103307   1.04899e+06      0.173884
    0.0334034       1899.94        340.94       78494.1       63.9452       3.45574             0       5.34794       2.33524             0        86.743       13.2443             0       49.7583             0             0   1.85836e-09     0.0948843     0.0259949        109790        103308    1.0491e+06      0.173846
    0.0335736       1899.94       340.722       78179.8       63.4491       3.71776             0       5.34053       2.37869             0       86.2137       13.4221             0       49.5056             0             0   1.68503e-09     0.0948636     0.0262072        109792        103309    1.0492e+06      0.173808
    0.0337437       1899.93       340.503       77865.5        62.953       3.97978             0       5.33312       2.42214             0       85.6844       13.5999             0        49.253             0             0   1.51169e-09     0.0948429     0.0264195        109793        103310    1.0493e+06       0.17377
    0.0339139       1899.93       340.285       77551.2        62.457        4.2418             0       5.32572       2.46559             0       85.1552       13.7777             0       49.0003             0             0   1.33836e-09     0.0948223     0.0266318        109795        103310   1.04941e+06      0.173732
    0.0340841       1899.93       340.054       77214.5       61.9148       4.48659             0       5.32001       2.50644             0       84.7216       13.9293             0       48.7039             0             0   1.19114e-09      0.094791     0.0269527        109796        103311   1.04955e+06      0.173675
    0.0342543       1899.92       339.812       76855.1       61.3253       4.71373             0       5.31603       2.54464             0        84.386       14.0539             0       48.3628             0             0   1.07066e-09     0.0947489     0.0273849        109796        103312   1.04973e+06      0.173598
    0.0344244       1899.92        339.57       76495.6       60.7358       4.94087             0       5.31206       2.58284             0       84.0504       14.1786             0       48.0216             0             0   9.50171e-10     0.0947068      0.027817        109796        103313    1.0499e+06      0.173521
    0.0345946       1899.91       339.327       76136.1       60.1464       5.16802             0       5.30808       2.62104             0       83.7148       14.3033             0       47.6805             0             0   8.29685e-10     0.0946647     0.0282492        109796        103314   1.05008e+06      0.173443
    0.0347648       1899.91       339.085       75776.6       59.5569       5.39516             0       5.30411       2.65925             0       83.3792        14.428             0       47.3393             0             0   7.09199e-10     0.0946226     0.0286813        109796        103315   1.05026e+06      0.173366
    0.0349349       1899.91       338.843       75417.1       58.9675        5.6223             0       5.30013       2.69745             0       83.0436       14.5527             0       46.9982             0             0   5.88714e-10     0.0945805     0.0291135        109796        103316   1.05044e+06      0.173289
    0.0351051        1899.9        338.59       75036.7       58.3461       5.81628             0       5.29888       2.73137             0       82.7887       14.6293             0       46.6033             0             0   5.13124e-10     0.0945245     0.0296889        109795        103317   1.05065e+06      0.173186
    0.0352753        1899.9        338.33       74643.5       57.7048       5.98974             0       5.29932       2.76263             0       82.5838       14.6761             0       46.1753             0             0   4.65327e-10     0.0944598     0.0303531        109792        103318   1.05089e+06      0.173068
    0.0354454       1899.89        338.07       74250.2       57.0636        6.1632             0       5.29977        2.7939             0       82.3789       14.7229             0       45.7472             0             0    4.1753e-10     0.0943951     0.0310172        109790        103319   1.05112e+06      0.172949
    0.0356156       1899.89        337.81       73856.9       56.4224       6.33666             0       5.30021       2.82517             0       82.1741       14.7698             0       45.3191             0             0   3.69734e-10     0.0943304     0.0316814        109788        103320   1.05136e+06      0.172831
    0.0357858       1899.89       337.551       73463.7       55.7811       6.51012             0       5.30065       2.85644             0       81.9692       14.8166             0        44.891             0             0   3.21937e-10     0.0942657     0.0323455        109785        103321   1.05159e+06      0.172712
     0.035956       1899.88       337.291       73070.4       55.1399       6.68358             0       5.30109       2.88771             0       81.7643       14.8634             0       44.4629             0             0    2.7414e-10      0.094201     0.0330096        109783        103322   1.05183e+06      0.172594
    0.0361261       1899.88       337.014       72643.5       54.4996       6.82373             0       5.30558       2.91332             0       81.6291       14.8411             0       43.9913             0             0   2.44631e-10     0.0941219     0.0338213        109779        103323   1.05208e+06      0.172449
    0.0362963       1899.88        336.73       72204.9       53.8596       6.95226             0       5.31149       2.93695             0       81.5181       14.7948             0       43.5045             0             0   2.21509e-10     0.0940379     0.0346845        109775        103324   1.05233e+06      0.172295
    0.0364665       1899.88       336.447       71766.3       53.2197       7.08079             0       5.31739       2.96058             0       81.4072       14.7484             0       43.0177             0             0   1.98387e-10     0.0939538     0.0355476        109770        103325   1.05259e+06      0.172141
    0.0366366       1899.88       336.163       71327.7       52.5797       7.20931             0        5.3233       2.98421             0       81.2962        14.702             0       42.5309             0             0   1.75265e-10     0.0938697     0.0364108        109766        103326   1.05284e+06      0.171987
    0.0368068       1899.87        335.88       70889.1       51.9397       7.33784             0        5.3292       3.00784             0       81.1853       14.6556             0       42.0441             0             0   1.52143e-10     0.0937856     0.0372739        109762        103327    1.0531e+06      0.171833
     0.036977       1899.87       335.597       70450.5       51.2998       7.46637             0       5.33511       3.03147             0       81.0743       14.6092             0       41.5573             0             0   1.29021e-10     0.0937015     0.0381371        109757        103328   1.05335e+06      0.171679
    0.0371471       1899.87       335.258       69906.6       50.6739       7.53832             0       5.34602       3.04685             0       80.9724       14.5041             0       41.0236             0             0   1.13867e-10     0.0936008     0.0391712        109752        103329   1.05367e+06      0.171494
    0.0373173       1899.88       334.912       69346.3       50.0502       7.60143             0       5.35772       3.06094             0       80.8719       14.3898             0       40.4825             0             0   9.99607e-11     0.0934974     0.0402322        109748        103331     1.054e+06      0.171305
    0.0374875       1899.88       334.565       68785.9       49.4266       7.66453             0       5.36943       3.07503             0       80.7714       14.2756             0       39.9415             0             0   8.60538e-11     0.0933941     0.0412931        109743        103332   1.05433e+06      0.171115
    0.0376577       1899.88       334.218       68225.6       48.8029       7.72764             0       5.38113       3.08912             0       80.6709       14.1613             0       39.4005             0             0    7.2147e-11     0.0932907      0.042354        109738        103333   1.05465e+06      0.170926
    0.0378278       1899.88       333.872       67665.2       48.1792       7.79074             0       5.39283       3.10321             0       80.5705        14.047             0       38.8594             0             0   5.82402e-11     0.0931873     0.0434149        109733        103334   1.05498e+06      0.170737
     0.037998       1899.88       333.525       67104.9       47.5556       7.85384             0       5.40453       3.11729             0         80.47       13.9327             0       38.3184             0             0   4.43334e-11      0.093084     0.0444758        109728        103336   1.05531e+06      0.170547
    0.0381682       1899.89       333.077       66355.1       46.9687       7.86976             0       5.42183       3.11949             0       80.2351       13.8152             0       37.7224             0             0   3.90458e-11     0.0929683     0.0456629        109725        103337   1.05572e+06      0.170335
    0.0383383       1899.89       332.629       65603.2       46.3822       7.88512             0       5.43919       3.12154             0       79.9987       13.6976             0       37.1257             0             0   3.38608e-11     0.0928525     0.0468515        109722        103338   1.05613e+06      0.170123
    0.0385085        1899.9        332.18       64851.2       45.7957       7.90047             0       5.45655       3.12359             0       79.7623       13.5799             0        36.529             0             0   2.86759e-11     0.0927367     0.0480401        109719        103339   1.05654e+06      0.169911
    0.0386787        1899.9       331.731       64099.2       45.2092       7.91583             0       5.47392       3.12564             0       79.5259       13.4623             0       35.9324             0             0   2.34909e-11     0.0926209     0.0492287        109716        103341   1.05696e+06      0.169699
    0.0388488       1899.91       331.282       63347.2       44.6227       7.93118             0       5.49128       3.12769             0       79.2894       13.3447             0       35.3357             0             0   1.83059e-11     0.0925052     0.0504173        109713        103342   1.05737e+06      0.169487
     0.039019       1899.91       330.823       62577.5       44.0423       7.93825             0       5.50918       3.12835             0       79.0388       13.2338             0       34.7324             0             0   1.35181e-11       0.09239     0.0515994        109711        103343   1.05779e+06      0.169276
    0.0391892       1899.91       330.285       61666.5       43.5104       7.87941             0        5.5313       3.11798             0       78.6756       13.1762             0       34.0762             0             0   1.18871e-11     0.0922799       0.05273        109712        103345   1.05832e+06      0.169074
    0.0393594       1899.91       329.747       60755.5       42.9784       7.82057             0       5.55343       3.10761             0       78.3124       13.1186             0       33.4201             0             0    1.0256e-11     0.0921697     0.0538605        109714        103346   1.05886e+06      0.168872
    0.0395295       1899.91       329.208       59844.5       42.4464       7.76174             0       5.57556       3.09724             0       77.9491        13.061             0       32.7639             0             0     8.625e-12     0.0920596     0.0549911        109716        103347   1.05939e+06       0.16867
    0.0396997       1899.92        328.67       58933.5       41.9144        7.7029             0       5.59769       3.08687             0       77.5859       13.0034             0       32.1078             0             0   6.99395e-12     0.0919494     0.0561217        109717        103349   1.05992e+06      0.168469
    0.0398699       1899.92       328.132       58022.5       41.3824       7.64407             0       5.61981       3.07649             0       77.2226       12.9458             0       31.4516             0             0   5.36291e-12     0.0918393     0.0572523        109719        103350   1.06046e+06      0.168267
      0.04004       1899.91       327.587       57105.6       40.8845        7.5562             0       5.64269        3.0637             0       76.8501       12.8959             0        30.785             0             0   3.99694e-12     0.0917357     0.0583164        109722        103351     1.061e+06      0.168077
    0.0402102        1899.9       327.023       56169.4       40.4974       7.37395             0       5.66801       3.04306             0       76.4474       12.8711             0       30.0842             0             0   3.49248e-12     0.0916531     0.0591643        109729        103353   1.06158e+06      0.167925
    0.0403804       1899.88       326.459       55233.2       40.1102       7.19171             0       5.69333       3.02241             0       76.0446       12.8463             0       29.3834             0             0   2.98802e-12     0.0915705     0.0600123        109736        103354   1.06215e+06      0.167774
    0.0405506       1899.86       325.894         54297        39.723       7.00946             0       5.71865       3.00176             0       75.6419       12.8215             0       28.6827             0             0   2.48357e-12     0.0914879     0.0608602        109743        103355   1.06273e+06      0.167623
    0.0407207       1899.84        325.33       53360.8       39.3359       6.82721             0       5.74397       2.98112             0       75.2391       12.7968             0       27.9819             0             0   1.97911e-12     0.0914053     0.0617082        109750        103357   1.06331e+06      0.167472
    0.0408909       1899.82       324.765       52424.6       38.9487       6.64497             0       5.76929       2.96047             0       74.8363        12.772             0       27.2812             0             0   1.47465e-12     0.0913227     0.0625561        109756        103358   1.06388e+06       0.16732
    0.0410611        1899.8       324.173       51440.1        38.599       6.43109             0       5.79475       2.93758             0       74.4349       12.7376             0       26.5777             0             0   1.11673e-12     0.0912538     0.0632628        109765        103360   1.06445e+06      0.167194
    0.0412312       1899.78       323.532       50369.2       38.3162        6.1607             0       5.82047       2.91067             0       74.0357       12.6863             0       25.8694             0             0   1.02066e-12     0.0912096      0.063717        109775        103361     1.065e+06      0.167113
    0.0414014       1899.75       322.891       49298.4       38.0334       5.89031             0       5.84619       2.88377             0       73.6365       12.6349             0       25.1611             0             0     9.246e-13     0.0911654     0.0641712        109786        103362   1.06555e+06      0.167032
    0.0415716       1899.72       322.249       48227.6       37.7506       5.61991             0       5.87191       2.85686             0       73.2373       12.5835             0       24.4529             0             0   8.28535e-13     0.0911211     0.0646254        109796        103364   1.06611e+06      0.166951
    0.0417417        1899.7       321.608       47156.8       37.4678       5.34952             0       5.89763       2.82996             0       72.8381       12.5321             0       23.7446             0             0   7.32469e-13     0.0910769     0.0650796        109807        103365   1.06666e+06       0.16687
    0.0419119       1899.67       320.966       46085.9        37.185       5.07912             0       5.92334       2.80305             0       72.4389       12.4808             0       23.0363             0             0   6.36404e-13     0.0910326     0.0655338        109817        103367   1.06721e+06      0.166789
    0.0420821       1899.64       320.249         44892       36.9725       4.78127             0       5.94677       2.77392             0       72.0742       12.3904             0       22.3331             0             0   9.42936e-13     0.0910068     0.0657992        109828        103368   1.06776e+06      0.166741
    0.0422523       1899.59        319.45       43565.9       36.8355       4.45396             0       5.96773       2.74242             0       71.7464       12.2583             0       21.6355             0             0   1.68152e-12     0.0910007     0.0658619        109840        103370    1.0683e+06       0.16673
    0.0424224       1899.54        318.65       42239.8       36.6985       4.12664             0       5.98868       2.71092             0       71.4187       12.1262             0       20.9379             0             0   2.42011e-12     0.0909947     0.0659246        109852        103371   1.06885e+06      0.166719
    0.0425926        1899.5       317.851       40913.7       36.5616       3.79933             0       6.00964       2.67941             0       71.0909        11.994             0       20.2403             0             0    3.1587e-12     0.0909886     0.0659873        109863        103372   1.06939e+06      0.166708
    0.0427628       1899.45       317.052       39587.6       36.4246       3.47201             0        6.0306       2.64791             0       70.7631       11.8619             0       19.5427             0             0   3.89729e-12     0.0909825       0.06605        109875        103374   1.06994e+06      0.166697
    0.0429329       1899.41       316.253       38261.6       36.2876        3.1447             0       6.05156        2.6164             0       70.4354       11.7297             0       18.8451             0             0   4.63588e-12     0.0909764     0.0661127        109887        103375   1.07048e+06      0.166686
    0.0431031       1899.29       315.423       36935.3       36.2457       2.83495             0         6.067       2.58171             0       70.1556       11.5357             0       18.1621             0             0   4.00809e-10     0.0909934     0.0659427        109898        103377   1.07108e+06      0.166717
    0.0432733       1899.13       314.573         35609       36.2656       2.53663             0       6.07886       2.54494             0       69.9071       11.3013             0       17.4885             0             0   1.05421e-09     0.0910253     0.0656212        109909        103378   1.07172e+06      0.166775
    0.0434434       1898.97       313.723       34282.6       36.2855       2.23831             0       6.09072       2.50817             0       69.6585       11.0669             0       16.8149             0             0    1.7076e-09     0.0910572     0.0652998        109919        103379   1.07235e+06      0.166834
    0.0436136       1898.81       312.873       32956.3       36.3055       1.93998             0       6.10257       2.47141             0         69.41       10.8325             0       16.1413             0             0     2.361e-09     0.0910891     0.0649784        109930        103381   1.07299e+06      0.166892
    0.0437838       1898.65       312.023         31630       36.3254       1.64166             0       6.11443       2.43464             0       69.1614       10.5982             0       15.4677             0             0    3.0144e-09      0.091121      0.064657        109941        103382   1.07362e+06      0.166951
     0.043954       1898.49       311.172       30303.6       36.3453       1.34334             0       6.12629       2.39787             0       68.9129       10.3638             0       14.7941             0             0   3.66779e-09     0.0911529     0.0643355        109952        103383   1.07426e+06      0.167009
    0.0441241       1898.41       310.341       29052.4       36.5198      0.997246             0       6.12962       2.35504             0       68.5238       10.0724             0       14.1514             0             0   2.88595e-07      0.091219     0.0636894        109960        103385   1.07491e+06       0.16713
    0.0442943       1898.35       309.518       27829.1       36.7515      0.633426             0        6.1298       2.30995             0       68.0826       9.75995             0       13.5202             0             0   6.78979e-07     0.0912978     0.0629229        109966        103386   1.07558e+06      0.167275
    0.0444645       1898.29       308.694       26605.7       36.9833      0.269606             0       6.12999       2.26487             0       67.6413       9.44746             0        12.889             0             0   1.06936e-06     0.0913766     0.0621564        109973        103387   1.07624e+06      0.167419
    0.0446346       1898.23        307.87       25382.4       37.2151    -0.0942146             0       6.13017       2.21978             0       67.2001       9.13498             0       12.2577             0             0   1.45975e-06     0.0914555     0.0613898        109979        103389    1.0769e+06      0.167563
    0.0448048       1898.17       307.046         24159       37.4468     -0.458035             0       6.13035        2.1747             0       66.7588       8.82249             0       11.6265             0             0   1.85013e-06     0.0915343     0.0606233        109986        103390   1.07757e+06      0.167708
     0.044975       1898.11       306.222       22935.7       37.6786     -0.821855             0       6.13053       2.12962             0       66.3176       8.51001             0       10.9953             0             0   2.24051e-06     0.0916131     0.0598567        109992        103391   1.07823e+06      0.167852
    0.0451451       1898.26       305.328       21578.2       37.8276      -1.12208             0       6.11706       2.07536             0        65.414       8.19231             0       10.4099             0             0   8.26379e-05     0.0916899     0.0588037        109998        103393   1.07886e+06      0.167993
    0.0453153       1898.46       304.423       20197.5       37.9623      -1.41135             0       6.10124       2.01952             0       64.4307        7.8737             0       9.83238             0             0    0.00017683     0.0917663     0.0577013        110003        103394   1.07948e+06      0.168133
    0.0454855       1898.65       303.517       18816.8        38.097      -1.70061             0       6.08542       1.96368             0       63.4474        7.5551             0       9.25488             0             0   0.000271021     0.0918427     0.0565989        110008        103395    1.0801e+06      0.168273