#           y             T         TMean   TPrime2Mean           U_x           U_y           U_z       UMean_x       UMean_y       UMean_z UPrime2Mea... UPrime2Mea... UPrime2Mea... UPrime2Mea... UPrime2Mea... UPrime2Mea...            O2           H2O          C3H8             p         pMean   pPrime2Mean           CO2
            0       289.997       288.095      0.171262       19.4502             0             0       22.7721             0             0       5.89592             0             0             0             0             0          0.23   2.91144e-14   4.22187e-08        110225        103346   1.26041e+06    5.3343e-14
  0.000500501       289.997       288.095      0.171231       19.4582     -0.311207             0       22.7746    -0.0124933             0       5.91464      0.130346             0     0.0615747             0             0          0.23   6.41094e-13   4.24973e-07        110226        103346   1.25986e+06    1.1746e-12
     0.001001       289.997       288.095        0.1712       19.4662     -0.622424             0        22.777    -0.0249793             0        5.9335      0.260698             0      0.123252             0             0          0.23   1.31683e-12   8.23996e-07        110227        103346    1.2593e+06   2.41267e-12
    0.0015015       289.999       288.095      0.171231       19.4373     -0.938201             0       22.7703    -0.0338585             0       6.02614      0.394432             0      0.236051             0             0      0.229998   3.38045e-11   9.34124e-06        110233        103346   1.25847e+06   6.19362e-11
     0.002002       290.001       288.095      0.171263       19.4083      -1.25426             0       22.7636    -0.0427643             0       6.11911      0.528326             0      0.349481             0             0      0.229996   6.99601e-11   1.82188e-05        110239        103346   1.25763e+06    1.2818e-10
    0.0025025       290.006       288.096      0.171602       19.3698      -1.63961             0       22.7625    -0.0582848             0       6.29215      0.701916             0      0.619801             0             0      0.229973   1.01941e-09   0.000116815        110247        103346    1.2561e+06   1.86775e-09
     0.003003       290.011       288.096      0.172005       19.3306      -2.02522             0       22.7613    -0.0737261             0       6.46672      0.875523             0      0.890878             0             0      0.229949   2.12168e-09   0.000221012        110255        103346   1.25458e+06   3.88732e-09
    0.0035035       290.053       288.104      0.182959        19.197      -2.45272             0       22.7453    -0.0760701             0        6.8945       1.05181             0       1.28736             0             0      0.229712   2.85414e-08    0.00125316        110267        103346   1.25355e+06   5.22932e-08
     0.004004       290.098       288.112      0.196778       19.0626      -2.88171             0       22.7294    -0.0785305             0        7.3248       1.22966             0        1.6883             0             0      0.229464    5.8285e-08    0.00232779        110279        103346   1.25252e+06   1.06789e-07
    0.0045045       290.542       288.181      0.565957       18.8266      -3.49402             0       22.7278    -0.0954185             0       8.06738       1.60027             0       2.64167             0             0      0.228005    5.0018e-07    0.00866968        110288        103346   1.25108e+06   9.16423e-07
   0.00500501       291.013       288.252       1.01361       18.5886      -4.10655             0       22.7256     -0.112074             0       8.81816       1.97007             0        3.6026             0             0      0.226509   9.83125e-07     0.0151678        110296        103345   1.24965e+06   1.80127e-06
   0.00550551       294.121       288.641       9.22983       18.1587      -4.74045             0       22.6704     -0.105694             0       10.3801       2.26092             0       5.31118             0             0      0.221446   5.53008e-06     0.0371366        110300        103344      1.25e+06   1.01321e-05
   0.00600601       297.341       289.041        18.363       17.7278      -5.37493             0       22.6153    -0.0998102             0       11.9374       2.55936             0       7.04839             0             0       0.21633    1.0389e-05     0.0593278        110304        103343   1.25037e+06   1.90346e-05
   0.00650651       309.852       290.348       102.992        17.218      -6.05712             0       22.5693     -0.134747             0       13.1186       3.48289             0       11.1436             0             0      0.206941   4.09317e-05     0.0998348        110301        103339   1.25197e+06   7.49945e-05
   0.00700701       322.569       291.686       194.006       16.7079      -6.73225             0        22.523     -0.168663             0       14.2757       4.40135             0       15.2569             0             0      0.197554   7.27094e-05      0.140321        110297        103335   1.25363e+06   0.000133217
   0.00750751       349.802       295.153       734.739       16.1727      -6.91063             0       22.4506     -0.130701             0       13.7334       4.96264             0       20.6438             0             0      0.188296   0.000191468      0.179357        110290        103330    1.2594e+06   0.000350806
   0.00800801       377.177       298.775       1392.25       15.6326      -7.08036             0       22.3677    -0.0931143             0       13.1857       5.48001             0       26.0414             0             0      0.179104   0.000312135      0.218085        110284        103325   1.26517e+06   0.000571889
   0.00850851       413.356       311.853       9231.43       14.7938      -6.71839             0       21.6405    -0.0785643             0       12.3146       3.29568             0       32.0938             0             0      0.173995   0.000550081      0.237855        110278        103318   1.27037e+06    0.00100785
   0.00900901       449.171       324.899       17055.6       13.9899      -6.35234             0       20.9147    -0.0620692             0       11.4401       1.09842             0       38.1254             0             0      0.168965   0.000782231      0.257339        110272        103312   1.27539e+06    0.00143319
   0.00950951       465.123       336.166       24058.4       15.0868      -5.76393             0       20.2691      0.060541             0       10.3813      -1.80442             0       43.0254             0             0      0.168283   0.000698166      0.261167        110260        103307   1.27022e+06    0.00127917
      0.01001       480.737       347.238       30922.9       16.1859        -5.166             0       19.6189      0.186419             0       9.34402      -4.66279             0       47.8278             0             0      0.167524   0.000611292      0.265361        110248        103303   1.26492e+06       0.00112
    0.0105105       479.816       348.758       31005.6       17.3952      -4.10203             0       18.7451      0.472413             0       9.35995      -5.34153             0       47.8555             0             0      0.162952    0.00038672      0.287542        110225        103307   1.25311e+06   0.000708543
     0.011011       478.929       350.266       31101.2       18.5741      -3.04491             0       17.8565      0.756318             0       9.42504       -5.9702             0       47.7983             0             0      0.158242   0.000167479      0.310271        110203        103311   1.24128e+06   0.000306852
    0.0115115       479.514       351.274       31768.6        18.397      -2.29228             0       16.3101       0.94738             0       11.6762      -4.37344             0       43.9685             0             0      0.147362   0.000185235      0.357394        110183        103319    1.2287e+06   0.000339386
     0.012012       480.166       352.289       32446.6       18.2315      -1.54558             0       14.7652       1.13574             0       13.9168      -2.75166             0       40.1119             0             0      0.136483    0.00020295       0.40451        110164        103326   1.21615e+06   0.000371843
    0.0125125       483.521       353.595       33554.5       18.5372      -1.03984             0       13.2769       1.21411             0       15.7257     -0.112614             0       35.1645             0             0      0.125668   0.000218955       0.45137        110140        103332   1.20492e+06   0.000401166
     0.013013       487.199       354.888         34655       18.8125     -0.533765             0       11.8095       1.28947             0       17.4628       2.49629             0       30.2619             0             0      0.114942   0.000236618      0.497821        110116        103337   1.19378e+06   0.000433529
    0.0135135       502.971       355.735       35476.5       17.9489    -0.0151439             0       11.1285       1.25204             0        16.506       3.97594             0       27.0399             0             0      0.107592   0.000316427      0.528959        110088        103340   1.18585e+06   0.000579753
     0.014014        518.81       356.526       36258.4       17.0651      0.496949             0         10.47       1.21583             0       15.5117       5.40084             0       23.8493             0             0      0.100359   0.000400484      0.559546        110061        103342   1.17802e+06   0.000733761
    0.0145145       536.969       355.376       35664.6        15.482      0.782412             0       10.5925       1.22218             0       13.2151         4.925             0       21.7533             0             0     0.0971871   0.000632013      0.570959        110041        103343   1.17322e+06    0.00115797
     0.015015       554.569       354.187       35020.7       13.9441         1.077             0       10.7147         1.227             0        10.972       4.45191             0       19.6776             0             0     0.0939894   0.000857858      0.582544        110022        103344   1.16848e+06    0.00157176
    0.0155155       554.088       351.774       32755.9       13.8691       1.66668             0       10.8271       1.18203             0       10.4546       4.06779             0        18.254             0             0     0.0899538   0.000899899      0.599658        110009        103344   1.16538e+06    0.00164878
     0.016016       553.034       349.218       30399.6       13.7861       2.26938             0       10.9541       1.13465             0       9.98865       3.65788             0       16.8585             0             0     0.0859969   0.000933915      0.616513        109997        103343   1.16231e+06    0.00171111
    0.0165165       534.673       342.354       25276.7       13.4601       3.26602             0       11.5193       1.01434             0        11.077       2.46817             0       16.3101             0             0      0.084423   0.000725159      0.625499        109984        103342   1.16041e+06    0.00132863
     0.017017       515.994       335.396       20134.4       13.1023       4.23896             0       12.1411      0.888954             0       12.1944       1.21312             0        15.763             0             0     0.0830506   0.000518168       0.63359        109971        103341   1.15852e+06    0.00094938
    0.0175175       488.268       325.751       14444.8       11.8394       4.53846             0        14.369      0.619086             0       14.1338       -1.8981             0       15.2491             0             0     0.0874039   0.000361337      0.616273        109951        103341   1.15675e+06   0.000662037
     0.018018       460.172       316.214       8849.87         10.62       4.82213             0       16.5965      0.356911             0       16.0731      -4.96862             0       14.7429             0             0     0.0918891   0.000207269      0.598354        109931        103341   1.15497e+06   0.000379756
    0.0185185        422.19       309.571       5792.58        10.567       4.68203             0       18.8167      0.300763             0       18.0076      -6.94919             0       14.4419             0             0     0.0999096   0.000127178      0.564305        109906        103340   1.15264e+06   0.000233013
     0.019019       384.491       303.047       2814.48       10.5818       4.54237             0       20.9802      0.247847             0       19.8783      -8.85453             0       14.1404             0             0      0.108039   4.93004e-05      0.529758        109882        103338   1.15032e+06   9.03275e-05
    0.0195195       353.965       299.508       1841.09       12.3113       4.41392             0       21.7101       0.27675             0        20.134      -8.85525             0       13.8241             0             0       0.11893     2.749e-05      0.482629        109860        103339   1.14795e+06   5.03668e-05
      0.02002       324.179       296.032       894.256        14.076       4.29664             0       22.4254      0.305958             0       20.3341      -8.83775             0       13.5265             0             0      0.129924   6.43074e-06      0.435046        109838        103339   1.14563e+06   1.17823e-05
    0.0205205        312.13       294.079       584.902       16.6888       4.44742             0       22.7904      0.342512             0       19.1992      -8.38331             0       13.6759             0             0      0.143382   3.39912e-06      0.376566        109835        103339   1.14451e+06   6.22782e-06
     0.021021       300.438       292.162        284.12       19.2788        4.6039             0       23.1422      0.383901             0        18.052      -7.89498             0       13.8818             0             0      0.156901    4.8504e-07      0.317815        109832        103338    1.1434e+06   8.88684e-07
    0.0215215       296.903       291.072       178.879       21.3506       4.89032             0       23.1893      0.535595             0       16.6224      -6.63375             0       15.3747             0             0      0.171842   2.52002e-07      0.252859        109839        103336   1.14265e+06   4.61714e-07
     0.022022       293.471       290.006       76.9545        23.371       5.16851             0       23.2136      0.687041             0       15.2367      -5.31757             0       16.8866             0             0      0.186648   2.86358e-08      0.188486        109846        103334   1.14191e+06   5.24662e-08
    0.0225225       292.257       289.474       47.0871        24.273        5.2679             0       22.7404      0.833088             0       14.8063      -2.80719             0       18.8124             0             0       0.19854   1.54289e-08      0.136781        109855        103332   1.14147e+06   2.82685e-08
     0.023023       291.081       288.956       18.2541       25.1618       5.36621             0       22.2197      0.984825             0       14.5446     -0.195722             0       20.7326             0             0       0.21017   2.78154e-09     0.0862164        109865        103329   1.14102e+06   5.09629e-09
    0.0235235       290.682       288.737       10.8718       25.7753       5.44193             0       20.7135       1.25457             0        17.783       4.51227             0       22.5365             0             0      0.216359   1.74135e-09     0.0593078        109873        103324    1.1402e+06   3.19047e-09
     0.024024       290.297       288.526       3.76934       26.3524       5.51195             0       19.1452       1.51952             0       21.4481       9.23215             0       24.4063             0             0      0.222343    7.4504e-10     0.0332901        109882        103320   1.13934e+06   1.36505e-09
    0.0245245       290.195       288.468       2.21755       26.2086        5.4687             0        16.344       1.68924             0       33.5762       14.1879             0       27.5827             0             0      0.224263   6.19095e-10     0.0249436        109891        103314   1.13779e+06    1.1343e-09
     0.025025         290.1       288.414       0.73091       25.9521       5.39692             0       13.5434       1.84313             0       45.9212       18.9117             0       30.8087             0             0      0.226094   5.45629e-10     0.0169832        109899        103309   1.13623e+06   9.99694e-10
    0.0255255       290.129        288.42      0.482066       23.5537       4.78306             0       10.7542       1.69605             0       62.3868       19.2287             0       34.9762             0             0      0.226237   1.46926e-09     0.0163609        109907        103301   1.13432e+06   2.69195e-09
     0.026026        290.16       288.427      0.244614       21.0955       4.14273             0       8.01258       1.53911             0       78.3988       19.3411             0        39.081             0             0      0.226312   2.79573e-09     0.0160343        109914        103293   1.13249e+06    5.1223e-09
    0.0265265       290.244       288.442      0.214845       17.5481       3.01989             0       6.13733       1.20248             0       86.1424       15.7215             0       42.0423             0             0      0.225147   1.14664e-08     0.0210987        109917        103285   1.13208e+06   2.10086e-08
     0.027027       290.328       288.456      0.186663       14.0673       1.89493             0       4.29383       0.86034             0       93.3026       12.0542             0       44.9338             0             0      0.223862   2.27743e-08     0.0266868        109920        103277   1.13173e+06   4.17267e-08
    0.0275275       290.421        288.47       0.18626        11.754      0.732934             0        3.0066      0.421841             0       90.2425       7.55076             0        46.604             0             0      0.220467   8.02808e-08     0.0414485        109915        103269   1.13231e+06   1.47089e-07
     0.028028       290.511       288.484       0.18585        9.5688     -0.404774             0        1.7429    -0.0166842             0       86.9466       3.09159             0       48.2063             0             0      0.217066   1.44536e-07     0.0562354        109910        103261   1.13285e+06   2.64817e-07
    0.0285285       290.562       288.494      0.185308       9.54383      -1.13307             0      0.875774     -0.455637             0       79.6759     -0.622126             0       48.6658             0             0      0.213567   3.22557e-07     0.0714473        109897        103254   1.13288e+06   5.90985e-07
     0.029029       290.612       288.504      0.184701       9.59126      -1.85781             0     0.0208675     -0.890836             0       72.3859      -4.23676             0       49.0567             0             0      0.210227   5.19767e-07      0.085964        109884        103247   1.13276e+06   9.52309e-07
    0.0295295       290.669        288.51      0.183028       10.8144      -2.52468             0     -0.635537      -1.26507             0        64.783      -6.24209             0       48.3325             0             0      0.209485   1.02862e-06     0.0891877        109869        103241   1.13012e+06   1.88463e-06
      0.03003       290.734       288.516      0.181734       12.0419       -3.2058             0      -1.28474       -1.6357             0       57.2385      -8.15847             0       47.5533             0             0      0.208871   1.57545e-06     0.0918511        109855        103236   1.12725e+06   2.88651e-06
    0.0305305       290.929       288.522      0.186372       13.3368      -4.11014             0      -1.82114      -1.94979             0       50.6087      -8.68124             0       45.9131             0             0      0.210275   2.71707e-06     0.0857359        109847        103232   1.12075e+06   4.97818e-06
     0.031031        291.13       288.529      0.191655       14.6083      -5.02454             0      -2.35213      -2.25859             0       44.1371      -9.13736             0       44.2364             0             0      0.211686   3.87128e-06     0.0795887        109839        103229   1.11404e+06   7.09291e-06
    0.0315315       291.433       288.536      0.206692       15.5261      -6.09116             0      -2.80126      -2.48726             0       40.0587      -8.58496             0       42.0068             0             0      0.213208   5.21588e-06     0.0729579        109842        103228   1.10426e+06   9.55646e-06
     0.032032       291.735       288.544      0.222119       16.4085      -7.16359             0      -3.24158      -2.71084             0       36.1472      -8.00698             0        39.764             0             0      0.214669   6.53983e-06     0.0665889        109845        103227   1.09442e+06   1.19822e-05
    0.0325325       292.027        288.55      0.243249       16.7747      -8.32102             0      -3.55292      -2.86009             0       34.6754      -7.05487             0       37.3271             0             0      0.215251   7.56199e-06      0.064048        109853        103228   1.08357e+06    1.3855e-05
     0.033033       292.313       288.556      0.264227       17.0877      -9.47164             0      -3.85397      -3.00444             0       33.2824       -6.1013             0       34.8922             0             0      0.215807    8.5543e-06      0.061622        109861        103229   1.07284e+06   1.56731e-05
    0.0335335       292.519        288.56      0.283039       16.6483      -10.5257             0      -4.00926      -3.07952             0       33.0035      -5.12701             0       32.4848             0             0       0.21599   9.12432e-06     0.0608221        109863        103232   1.06372e+06   1.67175e-05
     0.034034       292.716       288.564      0.301273       16.1571      -11.5654             0      -4.15498      -3.15122             0       32.7286      -4.15424             0       30.0937             0             0      0.216182   9.64115e-06     0.0599796        109865        103235   1.05485e+06   1.76644e-05
    0.0345345        292.79       288.567      0.311581        14.955      -12.4084             0      -4.16966      -3.17649             0       32.5063      -3.20251             0        27.926             0             0      0.216511   9.42887e-06     0.0585517        109857        103239    1.0495e+06   1.72754e-05
     0.035035       292.854       288.569      0.321157       13.7171      -13.2328             0      -4.17749      -3.19854             0        32.249      -2.25178             0       25.7776             0             0      0.216853   9.16697e-06     0.0570678        109849        103242   1.04447e+06   1.67956e-05
    0.0355355        292.79       288.573      0.321003       12.0031      -13.8121             0      -4.09436      -3.17781             0       31.5274      -1.31458             0       23.8854             0             0      0.217368   8.24585e-06     0.0548392        109833        103246   1.04368e+06   1.51079e-05
     0.036036       292.722       288.577      0.320468       10.2752       -14.379             0      -4.00501      -3.15378             0       30.7557     -0.396899             0       22.0124             0             0      0.217876   7.31727e-06     0.0526383        109816        103249   1.04324e+06   1.34066e-05
    0.0365365       292.593       288.583      0.315042       8.36832      -14.7881             0      -3.83535      -3.08715             0       29.3378      0.269143             0       20.3873             0             0      0.218303   6.29252e-06     0.0507937        109801        103253    1.0472e+06   1.15291e-05
     0.037037       292.469       288.589      0.310067       6.45242      -15.1848             0       -3.6608      -3.01683             0       27.8874      0.911306             0        18.786             0             0      0.218715   5.29676e-06     0.0490115        109787        103256   1.05148e+06   9.70465e-06
    0.0375375       292.397       288.598      0.310731       4.42343      -15.4253             0      -3.42495      -2.90026             0       26.0312       1.25464             0       17.4834             0             0      0.218947   4.66366e-06     0.0480095        109782        103259    1.0597e+06    8.5447e-06
     0.038038       292.339       288.607      0.312782       2.38868      -15.6477             0      -3.18478      -2.78091             0        24.198       1.58825             0       16.2055             0             0      0.219161   4.08309e-06     0.0470879        109778        103262   1.06818e+06   7.48099e-06
    0.0385385       292.454       288.618      0.331689      0.283941      -15.6497             0       -2.8922      -2.62773             0       22.6441        1.8035             0       15.2285             0             0      0.219147   4.14113e-06     0.0471447        109790        103264   1.07982e+06   7.58732e-06
     0.039039       292.589       288.629      0.352451      -1.81337      -15.6298             0      -2.59665      -2.47287             0       21.1505       2.01799             0       14.2686             0             0      0.219118   4.27427e-06     0.0472694        109803        103267   1.09162e+06   7.83127e-06
    0.0395395       292.952        288.64      0.395149      -3.82283      -15.3502             0      -2.26597      -2.29825             0       20.3703       2.22354             0        13.511             0             0      0.218903   5.29527e-06     0.0481975        109830        103269   1.10533e+06   9.70193e-06
      0.04004       293.343       288.651      0.440115      -5.81019      -15.0569             0      -1.93232      -2.12343             0        19.638       2.42537             0       12.7565             0             0      0.218669    6.4425e-06     0.0492023        109857        103272   1.11909e+06   1.18039e-05
    0.0405405       294.066       288.662      0.511176      -7.54347      -14.6073             0      -1.56454      -1.94628             0       19.4569       2.58435             0       12.0385             0             0      0.218229   9.04135e-06     0.0510889        109893        103274   1.13353e+06   1.65654e-05
     0.041041        294.83       288.674      0.584826      -9.25395      -14.1542             0      -1.19348      -1.76942             0       19.2883       2.73745             0        11.317             0             0      0.217766   1.18916e-05     0.0530688        109930        103276   1.14793e+06   2.17876e-05
    0.0415415       296.061       288.685      0.687461      -10.7092      -13.6609             0     -0.785825      -1.59573             0       19.2608       2.82468             0       10.5569             0             0      0.217058   1.75561e-05     0.0560928        109969        103279    1.1619e+06    3.2166e-05
     0.042042       297.321       288.696      0.790336      -12.1409      -13.1607             0      -0.37528      -1.42305             0       19.2346       2.90821             0       9.78852             0             0      0.216324   2.36195e-05     0.0592192        110008        103281   1.17578e+06   4.32753e-05
    0.0425425         298.9       288.705      0.895819       -13.315      -12.5848             0     0.0667879      -1.26144             0       19.2235       2.95127             0       8.93122             0             0      0.215323   3.40336e-05     0.0634625        110047        103284   1.18864e+06   6.23559e-05
     0.043043       300.449       288.714      0.995813      -14.4522        -11.99             0      0.509168      -1.10119             0       19.2276       2.98539             0        8.0686             0             0      0.214293   4.47624e-05     0.0678328        110087        103286   1.20133e+06    8.2013e-05
    0.0435435       301.683       288.715       1.03746      -15.1976      -11.1947             0      0.954862     -0.955562             0       19.3948        2.9246             0       7.14953             0             0      0.212944    5.8835e-05      0.073552        110123        103289   1.21228e+06   0.000107797
     0.044044       302.828       288.716       1.07042      -15.8913       -10.379             0       1.39965     -0.811576             0       19.5811       2.85545             0       6.23386             0             0      0.211583   7.28401e-05      0.079328        110159        103292   1.22301e+06   0.000133457
    0.0445445       303.062        288.71       1.01333      -16.0494      -9.35276             0        1.8351     -0.684649             0       19.9644       2.69967             0       5.35348             0             0      0.210087   8.61449e-05     0.0856924        110185        103295   1.23148e+06   0.000157834
     0.045045       303.176       288.704      0.947284      -16.1581      -8.31985             0       2.26654     -0.559858             0        20.357       2.53669             0       4.48408             0             0      0.208647   9.84988e-05     0.0918267        110209        103297    1.2397e+06   0.000180468
    0.0455455       302.091       288.692       0.79068       -15.768       -7.2192             0        2.6575     -0.456671             0       20.8433       2.30095             0       3.72568             0             0      0.207765   0.000101237      0.095634        110214        103300   1.24532e+06   0.000185485