#           y             T         TMean   TPrime2Mean           U_x           U_y           U_z       UMean_x       UMean_y       UMean_z UPrime2Mea... UPrime2Mea... UPrime2Mea... UPrime2Mea... UPrime2Mea... UPrime2Mea...            O2           H2O          C3H8             p         pMean   pPrime2Mean           CO2
  1.11022e-19       290.783       288.204      0.353958       33.6837  -1.30752e-14             0        20.852  -8.73351e-16             0       31.2571  -8.44032e-15             0   4.35454e-16             0             0       0.22977   5.31603e-05   0.000455713        109847        103336   1.08666e+06   9.73995e-05
  0.000500501       291.872       288.329       2.37045       33.7102     -0.324934             0       20.8539     0.0507738             0       31.2952     -0.140714             0     0.0845707             0             0        0.2293   0.000192443    0.00106791        109839        103336   1.08677e+06   0.000352592
     0.001001       292.985       288.456       4.50298       33.7368     -0.649843             0       20.8558      0.101544             0       31.3341     -0.281479             0      0.169235             0             0      0.228825   0.000333601    0.00168404        109832        103336   1.08687e+06    0.00061122
    0.0015015       305.712       289.311       64.5369       33.8689      -0.96274             0       20.8741      0.150435             0       31.7786     -0.447799             0      0.300469             0             0       0.22569    0.00141041     0.0042617        109823        103336   1.08571e+06    0.00258413
     0.002002       318.623       290.175       127.966       34.0036      -1.27437             0       20.8924      0.199364             0       32.2263      -0.61379             0      0.432129             0             0      0.222532    0.00249678    0.00684058        109815        103336   1.08455e+06    0.00457456
    0.0025025       377.191       293.476       1036.67       34.7909      -1.26929             0        20.938      0.257877             0       33.4865     -0.697823             0      0.669788             0             0      0.213688    0.00596269    0.00972003        109824        103335   1.08422e+06     0.0109248
     0.003003       437.037       296.848       2061.12       35.5921      -1.26557             0       20.9843       0.31638             0       34.7724     -0.782174             0      0.908316             0             0      0.204742    0.00947504     0.0125661        109833        103335   1.08388e+06       0.01736
    0.0035035       708.738       311.889       22261.2       38.7031      -1.48764             0        21.144      0.373492             0       40.3187     -0.919254             0       1.29074             0             0      0.178908     0.0206817    0.00987873        109842        103334   1.08254e+06     0.0378927
     0.004004       980.799       326.931       42502.7       41.8244      -1.71384             0       21.3041      0.430598             0       45.8908      -1.05908             0       1.67487             0             0      0.153049     0.0318992    0.00718407        109850        103334   1.08122e+06     0.0584453
    0.0045045       1297.51       342.144       67868.8        46.215       -2.4518             0       21.5124      0.487107             0       54.6742      -1.53979             0       2.27177             0             0       0.12421     0.0444647    0.00358333        109859        103333   1.08085e+06     0.0814677
   0.00500501       1612.23       357.236       93046.9       50.5848       -3.1957             0       21.7195      0.543365             0       63.4323      -2.02708             0       2.87065             0             0     0.0953751     0.0570245   2.51763e-05        109867        103333   1.08051e+06      0.104479
   0.00550551       1730.51       360.491       99611.4        52.905      -4.52856             0       21.8117      0.574896             0        69.694      -3.16685             0       3.66584             0             0     0.0669168     0.0690117   0.000682501        109882        103332   1.08184e+06      0.126442
   0.00600601        1847.6       363.709        106083       55.2041      -5.85972             0       21.9018      0.606575             0       75.9079       -4.3023             0       4.46106             0             0     0.0385679     0.0809442    0.00142641        109896        103331   1.08314e+06      0.148305
   0.00650651       1866.13       363.815        104893       55.7623      -7.05129             0       21.8169      0.650468             0       78.1787      -5.08235             0       5.25823             0             0     0.0192206     0.0883717    0.00929914        109908        103331   1.08287e+06      0.161913
   0.00700701       1884.08       363.904        103663       56.3169      -8.24281             0       21.7296      0.694379             0       80.4324       -5.8612             0       6.05704             0             0   0.000143132     0.0956732     0.0172921        109921        103330   1.08261e+06      0.175291
   0.00750751       1860.74       362.773       99593.6       56.6107      -9.43094             0       21.4717      0.739463             0       81.4794      -6.55612             0       6.97208             0             0   7.10725e-05     0.0941006     0.0337518        109934        103329   1.08248e+06       0.17241
   0.00800801       1837.27       361.643       95526.3       56.9008      -10.6159             0       21.2117      0.784545             0       82.5299      -7.24806             0       7.88658             0             0   1.64578e-07     0.0925232     0.0502547        109948        103329   1.08234e+06       0.16952
   0.00850851       1806.33       360.509       91599.6       56.9665      -11.6054             0       20.8176      0.829507             0       83.7981      -7.75683             0       8.76858             0             0   8.16329e-08     0.0906566     0.0694216        109960        103328   1.08128e+06        0.1661
   0.00900901       1775.42       359.414       87744.1       57.0309      -12.5985             0       20.4218      0.874104             0       85.0569      -8.26741             0       9.65373             0             0   1.79442e-10     0.0887912     0.0885763        109972        103327   1.08021e+06      0.162682
   0.00950951       1745.94       360.419       87768.2       57.0186      -13.7906             0       19.9355      0.898824             0       85.8046      -8.87753             0       10.7111             0             0   8.89117e-11     0.0869898      0.107074        109984        103326   1.07889e+06      0.159382
      0.01001        1716.5       361.406       87765.7       57.0019      -14.9798             0       19.4492      0.923369             0       86.5557      -9.48631             0       11.7717             0             0   1.90435e-13      0.085193      0.125526        109995        103325   1.07758e+06      0.156089
    0.0105105       1689.13       361.497       86461.1       56.7665      -16.0253             0       18.9637      0.939357             0       87.4704      -10.0297             0       12.9947             0             0   9.55988e-14     0.0836187      0.141693        110003        103324   1.07589e+06      0.153205
     0.011011       1662.01       361.549       85102.9       56.5266      -17.0691             0       18.4785      0.954829             0       88.4098      -10.5828             0       14.2211             0             0   3.57262e-15     0.0820594      0.157706        110011        103323    1.0742e+06      0.150348
    0.0115115        1645.6       359.828       81362.1       56.0864      -18.0358             0       18.0113      0.947325             0       90.4453      -11.5653             0       15.5962             0             0   3.64794e-14     0.0811699       0.16684        110013        103321    1.0722e+06      0.148718
     0.012012       1629.56       358.143       77708.6       55.6462      -18.9993             0       17.5442      0.939777             0       92.5291      -12.5517             0        16.973             0             0   8.55688e-14     0.0803018      0.175755        110016        103320   1.07021e+06      0.147128
    0.0125125       1628.89       357.897       77605.6       55.2019      -19.8345             0       17.0789      0.930417             0       96.5792      -13.6953             0       18.4195             0             0   7.92756e-13     0.0803043      0.175727        110013        103318    1.0682e+06      0.147133
     0.013013       1628.67       357.676       77561.6       54.7464      -20.6709             0       16.6151      0.920639             0       100.621      -14.8404             0       19.8735             0             0   1.89429e-12     0.0803278      0.175484        110010        103317   1.06618e+06      0.147176
    0.0135135       1645.41       358.412       79722.5       53.8762      -21.5565             0       16.2063       0.89517             0        104.37       -16.038             0       21.6092             0             0   1.77684e-11     0.0811348      0.167192        110003        103315     1.064e+06      0.148654
     0.014014       1662.54       359.168       81922.2       52.9802      -22.4342             0       15.7999      0.869307             0       108.062      -17.2253             0        23.346             0             0    3.9094e-11     0.0819535      0.158778        109995        103313   1.06181e+06      0.150154
    0.0145145       1692.78       360.586       85466.2       51.1888      -23.0339             0       15.4768      0.829728             0       109.805      -18.0569             0       25.1217             0             0    2.4966e-10     0.0831814      0.146162        109985        103310   1.05931e+06      0.152404
     0.015015       1722.86       362.006       89019.8       49.3836       -23.627             0       15.1542      0.790735             0       111.478      -18.8556             0       26.8862             0             0   5.63762e-10     0.0843966      0.133677        109975        103308   1.05682e+06       0.15463
    0.0155155       1748.11       363.471       92883.9        47.131      -24.0061             0       14.8488      0.770645             0       110.883      -18.5951             0       28.2875             0             0   4.22554e-09     0.0852006      0.125417        109965        103305   1.05461e+06      0.156103
     0.016016       1773.26       364.922       96727.2       44.9568      -24.4127             0       14.5449      0.750809             0        110.34      -18.3606             0       29.6973             0             0   9.81463e-09     0.0859939      0.117268        109955        103303   1.05241e+06      0.157557
    0.0165165       1795.48       365.983       99944.7       45.1535      -25.6495             0       14.2879      0.738668             0       111.355      -18.9135             0       31.3594             0             0   7.37049e-08     0.0864604      0.112479        109942        103301    1.0502e+06      0.158412
     0.017017       1817.72       367.032        103139       45.4691      -26.9299             0       14.0341      0.727259             0       112.549      -19.5157             0       33.0302             0             0   1.54029e-07     0.0869245      0.107714        109929        103298   1.04799e+06      0.159262
    0.0175175       1840.25       367.735        105692       49.1624       -29.447             0       13.8717      0.736654             0       118.837      -21.5194             0       34.9452             0             0   7.01261e-07     0.0873214       0.10364        109910        103296    1.0456e+06      0.159989
     0.018018       1862.48       368.435        108244       52.8925      -31.9716             0       13.7111      0.746458             0       125.307      -23.5883             0       36.8855             0             0    1.2767e-06     0.0877144     0.0996053        109891        103294   1.04329e+06      0.160709
    0.0185185       1876.64       369.066        110812         57.61      -34.6967             0       13.5992      0.767207             0       136.647      -27.4047             0       39.4994             0             0   2.60753e-06     0.0880043     0.0966255        109866        103292   1.04305e+06       0.16124
     0.019019       1890.44       369.686        113348       62.2188      -37.3927             0       13.4849      0.788599             0       147.846      -31.2128             0       42.1322             0             0   4.46985e-06     0.0882944     0.0936409        109841        103291   1.04284e+06      0.161772
    0.0195195       1895.16       369.993        115117       64.0757      -39.3537             0        13.313      0.826289             0       155.467      -34.8114             0       45.2435             0             0   1.97875e-05     0.0885905     0.0905338        109809        103289   1.04317e+06      0.162314
      0.02002       1899.69       370.275        116815       65.8405      -41.2773             0       13.1364      0.865869             0       162.629      -38.2798             0       48.3188             0             0    4.4327e-05     0.0888821     0.0874338        109777        103287   1.04341e+06      0.162849
    0.0205205       1899.85       369.938        116817       65.3932      -42.3064             0       12.8477      0.950792             0       158.799      -38.6229             0       50.5324             0             0   0.000290191     0.0890634     0.0845012        109741        103285    1.0416e+06      0.163181
     0.021021       1899.98       369.581        116770       65.0241      -43.4153             0       12.5587       1.03704             0       154.866      -38.9537             0       52.7825             0             0   0.000614613     0.0892063     0.0816208        109704        103283   1.03963e+06      0.163443
    0.0215215       1899.59       368.764        115635       66.4391      -46.3479             0       12.2626       1.15347             0       148.608      -39.0011             0       55.8646             0             0    0.00273092     0.0884741     0.0799317        109622        103282   1.03376e+06      0.162101
     0.022022       1896.22       367.908        114402       67.7241      -49.0594             0       11.9691       1.27246             0       142.484      -38.9943             0       58.8576             0             0    0.00534622      0.087519     0.0783613        109546        103280   1.02839e+06      0.160351
    0.0225225       1828.22       366.196        111056       66.1823      -46.9682             0       11.7322       1.44726             0       139.252      -37.8121             0       59.9126             0             0     0.0188031     0.0817209     0.0793691        109607        103279   1.03372e+06      0.149728
     0.023023       1751.78       364.381        107509       64.2551      -44.4567             0       11.4929       1.62824             0       135.679      -36.3384             0       60.7827             0             0     0.0330829     0.0755562     0.0805626        109679        103278   1.04021e+06      0.138433
    0.0235235       1500.41        360.43       99760.5       54.3324      -33.2271             0        11.206       1.93731             0       125.045      -28.8198             0       57.8185             0             0     0.0644306     0.0617874     0.0856089        109961        103280   1.07082e+06      0.113206
     0.024024       1252.47       356.237       91615.6       44.5164      -22.0537             0       10.9147       2.25252             0       114.001      -21.1464             0       54.9402             0             0     0.0952753     0.0482504     0.0904614        110239        103282   1.10172e+06     0.0884037
    0.0245245        1072.6        347.24         75608       36.8134      -11.9939             0        10.536       2.68969             0       94.8237       -10.404             0       53.7661             0             0      0.116146      0.039312     0.0914731        110444        103285   1.13854e+06      0.072027
     0.025025        896.01       338.059       59414.7       29.4671       -2.1663             0       10.1616       3.12478             0       75.9631       0.11186             0       52.7435             0             0      0.136717     0.0305111      0.092375        110639        103288   1.17404e+06     0.0559021
    0.0255255       781.636       325.379       39693.2       28.8969        3.2479             0       9.87061       3.52042             0        63.125       6.32468             0       54.6015             0             0      0.151604     0.0243213     0.0911916        110642        103289   1.18458e+06     0.0445611
     0.026026       665.794       312.946       20501.6       28.3413       8.43336             0       9.58612       3.90942             0        50.724       12.2813             0       56.4654             0             0      0.166579     0.0180855      0.090093        110642        103289   1.19435e+06      0.033136
    0.0265265       523.183       305.004       10969.3       28.0522       9.44889             0       9.41983       4.17745             0       46.2924       13.5671             0       58.4367             0             0      0.183177     0.0110118     0.0905395        110606        103289   1.19018e+06     0.0201756
     0.027027       386.454       297.385       1915.75       27.7449        10.399             0        9.2551       4.44409             0       41.9952        14.842             0       60.3737             0             0       0.19912    0.00423841     0.0907532        110570        103289   1.18594e+06    0.00776556
    0.0275275       352.786        295.43       1250.91        27.118       10.2035             0       9.11783       4.68656             0        40.052       15.9249             0       61.7077             0             0      0.203579    0.00272601     0.0868902        110548        103288   1.18049e+06    0.00499456
     0.028028       320.348       293.546        616.79       26.4747       10.0111             0       8.98007       4.92913             0       38.1653       17.0208             0       63.0326             0             0      0.207933    0.00126987     0.0829071        110527        103288   1.17495e+06    0.00232664
    0.0285285       308.635        292.85       500.593       25.5529        9.8694             0       8.83424       5.17332             0       37.2301       18.3366             0       64.2042             0             0      0.210514   0.000762144     0.0768984        110518        103288   1.16776e+06    0.00139639
     0.029029       297.442       292.174       388.201       24.6196       9.71618             0       8.68699       5.41734             0       36.3229       19.6449             0       65.3544             0             0      0.213023   0.000277128     0.0709675        110511        103288   1.16068e+06    0.00050775
    0.0295295       294.677       291.809        337.61       23.4984       9.37571             0       8.51682       5.65831             0       35.8711       20.8317             0       66.1569             0             0      0.214371   0.000160967     0.0662994        110527        103288   1.15534e+06   0.000294922
      0.03003       292.052       291.453       288.206       22.3974       9.06962             0       8.34601       5.89944             0       35.4528       22.0124             0       66.9484             0             0      0.215675   5.06692e-05     0.0617627        110540        103288   1.14977e+06   9.28354e-05
    0.0305305       291.623       291.227       257.376       21.6132       9.30199             0       8.16536       6.14293             0       35.5572       23.0974             0       67.5654             0             0      0.216289    3.2221e-05     0.0592842        110530        103289    1.1407e+06    5.9035e-05
     0.031031       291.214       291.005       227.148       20.8305       9.53996             0       7.98445       6.38607             0       35.6881       24.1643             0       68.1655             0             0       0.21688   1.47293e-05     0.0568911        110520        103289   1.13162e+06   2.69869e-05
    0.0315315       291.116       290.848       206.018       20.0718       9.86263             0        7.7999       6.62383             0       36.2203       24.9559             0       68.5106             0             0      0.217141   1.17073e-05     0.0557896        110499        103289   1.12242e+06     2.145e-05
     0.032032        291.02       290.693       185.281       19.3136       10.1981             0        7.6152        6.8608             0       36.7777       25.7263             0       68.8435             0             0       0.21739   8.82294e-06     0.0547378        110476        103289   1.11319e+06   1.61653e-05
    0.0325325       290.956       290.575       170.284       18.5621       10.7203             0       7.42823        7.0861             0       37.7045       26.1865             0       68.9986             0             0      0.217467   7.95028e-06      0.054412        110432        103290    1.1035e+06   1.45664e-05
     0.033033       290.892       290.459       155.636       17.7989       11.2454             0       7.24088       7.30979             0       38.6514       26.6219             0       69.1373             0             0      0.217538   7.08768e-06     0.0541082        110387        103291   1.09389e+06    1.2986e-05
    0.0335335       290.829       290.375       145.921         16.87       11.8112             0       7.04815       7.51073             0       39.8823       26.7066             0       69.0421             0             0      0.217538   6.36736e-06     0.0541177        110332        103292   1.08532e+06   1.16662e-05
     0.034034       290.766       290.294       136.449       15.9242       12.3834             0       6.85468        7.7092             0       41.1242       26.7626             0       68.9241             0             0      0.217532   5.64764e-06     0.0541496        110276        103293   1.07686e+06   1.03475e-05
    0.0345345       290.697       290.237       130.296       14.7455       13.0427             0       6.65093       7.87369             0        42.515       26.4246             0       68.4937             0             0      0.217456   4.93615e-06     0.0544899        110212        103294   1.06985e+06   9.04394e-06
     0.035035       290.629       290.181       124.276         13.55       13.7016             0       6.44582       8.03473             0       43.9074       26.0555             0       68.0338             0             0      0.217366   4.23914e-06     0.0548884        110148        103296   1.06297e+06   7.76689e-06
    0.0355355       290.565       290.139       120.023       12.1303       14.3548             0        6.2226       8.14997             0       45.3203       25.2719             0       67.1808             0             0      0.217098   3.73467e-06     0.0560593        110088        103298   1.05792e+06   6.84261e-06
     0.036036       290.503       290.098       115.829       10.7046       15.0063             0       5.99719       8.26089             0       46.7294        24.457             0       66.2931             0             0      0.216806   3.24755e-06     0.0573331        110030        103300     1.053e+06   5.95011e-06
    0.0365365       290.459       290.064       112.395       9.20203       15.6354             0       5.74361       8.31627             0       48.0893       23.2392             0       64.9586             0             0      0.216209   2.98402e-06     0.0599321        109979        103303   1.04988e+06   5.46727e-06
     0.037037       290.417        290.03           109       7.70367       16.2565             0       5.48717       8.36677             0       49.4426       21.9926             0       63.5864             0             0      0.215597   2.73871e-06     0.0625918        109929        103306   1.04688e+06   5.01782e-06
    0.0375375       290.401       290.002       106.104       6.25792       16.7774             0       5.19485       8.35614             0       50.7126       20.3851             0       61.7414             0             0      0.214811   2.72141e-06     0.0660125        109893        103309   1.04554e+06   4.98613e-06
     0.038038       290.386       289.975       103.246       4.82795       17.2851             0       4.89912       8.34045             0       51.9784       18.7567             0       59.8578             0             0      0.214022   2.72337e-06      0.069442        109858        103312   1.04432e+06   4.98973e-06
    0.0385385        290.39       289.954       100.861       3.58985       17.6307             0       4.56203       8.26307             0       53.1918       16.8742             0        57.505             0             0      0.213208   2.95952e-06     0.0729796        109841        103316   1.04454e+06   5.42239e-06
     0.039039       290.396       289.933       98.4941       2.37794       17.9537             0       4.22141        8.1806             0       54.4048       14.9821             0       55.1181             0             0      0.212398   3.20537e-06     0.0764989        109826        103320   1.04487e+06   5.87283e-06
    0.0395395       290.415       289.917       96.3556       1.47573       18.0096             0       3.83924       8.03788             0       55.6128        12.977             0       52.3288             0             0      0.211637   3.56587e-06     0.0798028        109835        103325    1.0464e+06   6.53334e-06
      0.04004       290.435       289.903       94.2426      0.590074       18.0431             0       3.45468       7.88992             0        56.807       10.9682             0       49.5165             0             0      0.210882   3.93823e-06     0.0830823        109844        103330   1.04802e+06   7.21557e-06
    0.0405405       290.466       289.895       92.4235     -0.105216       17.8191             0       3.04265        7.6816             0       57.8436       8.91676             0       46.4398             0             0      0.210191   4.44681e-06     0.0860809        109872        103335   1.05059e+06   8.14738e-06
     0.041041       290.497       289.888       90.6188     -0.781675       17.5729             0       2.63044       7.46797             0       58.8344       6.86354             0       43.3478             0             0      0.209497   4.99036e-06     0.0890932        109901        103340   1.05325e+06   9.14328e-06
    0.0415415       290.538       289.886       88.9748      -1.24731        17.079             0       2.21614       7.19494             0       59.3116       4.79076             0       40.0846             0             0      0.208766   5.92552e-06      0.092259        109945        103346    1.0567e+06   1.08567e-05
     0.042042       290.579       289.884       87.3043      -1.67591       16.5705             0       1.80329       6.91697             0       59.7323       2.72553             0       36.8121             0             0      0.208046   6.85192e-06     0.0953817        109989        103351   1.06023e+06    1.2554e-05
    0.0425425       290.629       289.884       85.3443      -1.70068       15.9018             0       1.40625       6.58513             0       59.5358      0.742599             0       33.4376             0             0      0.207434   7.68279e-06     0.0980334        110039        103356   1.06446e+06   1.40763e-05
     0.043043        290.68       289.883        83.341      -1.70759       15.2269             0       1.01063       6.24941             0       59.3176      -1.21778             0        30.065             0             0      0.206847   8.54092e-06      0.100575        110089        103362   1.06874e+06   1.56486e-05
    0.0435435       290.746       289.883       80.8772      -1.52481       14.4868             0      0.629993        5.8724             0       58.8682      -2.93847             0       26.7126             0             0      0.206529   9.68886e-06      0.101947        110124        103367   1.07346e+06   1.77518e-05
     0.044044       290.813       289.883       78.3757      -1.36941       13.7444             0      0.252101       5.49203             0       58.3956      -4.61324             0       23.3775             0             0      0.206228   1.12186e-05       0.10324        110157        103373    1.0782e+06   2.05545e-05
    0.0445445         290.9       289.881       75.4847      -1.49775       12.9775             0    -0.0973525       5.07697             0       57.6833       -5.8122             0       20.2212             0             0      0.206108   1.67047e-05      0.103706        110158        103378   1.08318e+06   3.06061e-05
     0.045045           291       289.877       72.4927      -1.64194        12.205             0     -0.441314       4.65831             0       56.9041      -6.94171             0       17.0951             0             0      0.205999   2.27444e-05      0.104119        110157        103383   1.08813e+06    4.1672e-05
    0.0455455       291.226       289.852       68.4812      -1.94652       11.3757             0     -0.729744       4.20314             0       55.4474      -7.36909             0       14.2752             0             0      0.205998   3.43816e-05      0.104001        110128        103388   1.09291e+06   6.29936e-05