#           y             T         TMean   TPrime2Mean           U_x           U_y           U_z       UMean_x       UMean_y       UMean_z UPrime2Mea... UPrime2Mea... UPrime2Mea... UPrime2Mea... UPrime2Mea... UPrime2Mea...            O2           H2O          C3H8             p         pMean   pPrime2Mean           CO2
  1.11022e-19        290.35       288.107      0.223807        26.552  -5.05244e-15             0       23.1298  -5.89357e-16             0       13.0912  -9.22503e-16             0    7.9317e-17             0             0      0.229998   3.26578e-08    1.0235e-05        109730        103315    1.1696e+06   5.98352e-08
  0.000500501       290.357       288.114       0.23862       26.5691     -0.105255             0       23.1292    0.00692253             0       13.0919     -0.167509             0     0.0426357             0             0      0.229992   1.78886e-07   3.50264e-05        109729        103315   1.16965e+06   3.27752e-07
     0.001001       290.363       288.122       0.25577       26.5861     -0.210482             0       23.1285     0.0138445             0       13.0928     -0.335036             0      0.085391             0             0      0.229985   3.29967e-07   6.02771e-05        109728        103315    1.1697e+06   6.04561e-07
    0.0015015       290.423       288.209       1.43854       26.5993     -0.301878             0       23.1327     0.0205092             0       13.1613     -0.511338             0      0.187797             0             0      0.229921   2.90307e-06   0.000314752        109719        103315    1.1696e+06   5.31896e-06
     0.002002       290.484       288.299       2.71129       26.6125     -0.393055             0       23.1369     0.0271738             0       13.2299      -0.68761             0      0.290649             0             0      0.229855   5.59485e-06   0.000574754        109710        103314   1.16949e+06   1.02508e-05
    0.0025025       290.938       288.811        26.387        26.645     -0.429904             0       23.1392     0.0338142             0       13.3435     -0.856306             0       0.50458             0             0      0.229402   3.78402e-05    0.00221123        109715        103314   1.16989e+06   6.93303e-05
     0.003003       291.415       289.332       50.9313       26.6775     -0.466582             0       23.1416      0.040456             0       13.4586      -1.02549             0      0.720007             0             0      0.228939   7.18868e-05    0.00387461        109721        103314   1.17029e+06    0.00013171
    0.0035035        295.56       291.084       219.373       26.6966     -0.475019             0       23.1716     0.0473399             0        13.832      -1.27593             0       1.18337             0             0      0.226747   0.000404353    0.00999346        109733        103313   1.17065e+06   0.000740849
     0.004004       299.969       292.871         409.9       26.7147     -0.482605             0       23.2016     0.0543157             0       14.2065      -1.52651             0       1.64879             0             0      0.224493   0.000757218     0.0161692        109745        103312   1.17102e+06    0.00138736
    0.0045045       337.036        298.89       3338.86       26.6014      -0.38462             0       23.2466     0.0726883             0       14.7166      -1.79393             0       2.36854             0             0      0.214645    0.00363964     0.0293983        109760        103312   1.17253e+06    0.00666851
   0.00500501       377.718       305.102       6599.57       26.4744     -0.283055             0       23.2926     0.0920222             0       15.2404      -2.05192             0       3.09881             0             0      0.204345    0.00672807     0.0424808        109774        103311   1.17403e+06     0.0123271
   0.00550551       776.329       330.441       42703.4       24.9988      0.173062             0       23.4482      0.206537             0       17.1287      -1.37619             0       4.87166             0             0      0.149236     0.0302102     0.0410425        109779        103309   1.17407e+06     0.0553506
   0.00600601       1174.52       355.743       78807.8       23.5137      0.629068             0        23.602       0.32079             0       19.0104     -0.712699             0       6.63711             0             0     0.0942215     0.0536578     0.0395484        109783        103308   1.17409e+06      0.098311
   0.00650651       1537.83        378.02        114965       21.2435       1.07606             0       23.6163      0.413462             0       20.3515      -1.05615             0       7.79287             0             0     0.0469715     0.0742651     0.0334511        109790        103306   1.17255e+06      0.136068
   0.00700701       1895.93        400.01        150647       19.0027       1.51302             0       23.6262      0.504558             0        21.678      -1.40611             0       8.92905             0             0   0.000380462     0.0945682     0.0276124        109798        103304   1.17103e+06      0.173267
   0.00750751       1886.36       401.843        152906         18.83       1.24323             0       23.3239      0.484655             0       21.9729       -2.2139             0       8.68652             0             0    0.00018917     0.0934449     0.0399783        109812        103303    1.1717e+06      0.171208
   0.00800801       1876.68       403.652        155105       18.6928      0.980538             0       23.0154      0.465472             0       22.2891      -2.99791             0       8.45246             0             0   9.31457e-07       0.09231     0.0524497        109826        103302   1.17236e+06      0.169129
   0.00850851       1859.55       404.045        153638       20.7326       1.15389             0       22.3254      0.490609             0       23.9111      -2.31856             0       8.73872             0             0   4.62436e-07     0.0904634     0.0714099        109830        103301   1.17258e+06      0.165746
   0.00900901       1842.52       404.451        152181       22.7904       1.32112             0       21.6271      0.515734             0       25.5573      -1.63713             0       9.02098             0             0   1.84143e-09     0.0886242     0.0902934        109834        103300   1.17279e+06      0.162376
   0.00950951       1831.48       405.535        151213       25.8252       1.15406             0         20.48      0.540135             0       28.5254     -0.842069             0       9.08527             0             0   9.12976e-10     0.0871922      0.104991        109849        103300   1.17274e+06      0.159752
      0.01001       1820.65       406.642        150294       28.8643      0.987376             0       19.3328      0.564107             0       31.5316    -0.0402042             0       9.14531             0             0   3.05671e-12     0.0857761      0.119526        109864        103300    1.1727e+06      0.157158
    0.0105105       1819.58       408.922        151796       32.1105      0.838815             0       18.1796      0.567069             0       36.4063       1.09486             0       8.99644             0             0   1.51388e-12     0.0851366      0.126097        109874        103301   1.17252e+06      0.155986
     0.011011       1818.35       411.161        153235       35.3252      0.689458             0       17.0356      0.568803             0       41.2636       2.20917             0       8.85296             0             0   4.93186e-15     0.0844943      0.132697        109885        103301   1.17234e+06      0.154809
    0.0115115        1809.9       411.593        151921        37.134      0.504709             0       16.2961      0.515978             0       45.3447       2.40124             0       8.94869             0             0   2.43946e-15     0.0837322      0.140561        109898        103301    1.1724e+06      0.153413
     0.012012       1800.67       411.963        150500       38.8899      0.315922             0       15.5671       0.46279             0       49.3724       2.56742             0       9.05022             0             0   6.79205e-18     0.0829417      0.148717        109912        103301   1.17246e+06      0.151965
    0.0125125       1759.55       409.872        144731       38.4971    -0.0370292             0       15.2645      0.394812             0       51.2287       1.68061             0       9.38735             0             0   3.35542e-18     0.0809936      0.168749        109924        103300   1.17293e+06      0.148395
     0.013013       1717.79       407.756        138938       38.0755     -0.387886             0       14.9687      0.326915             0       53.0495      0.791983             0       9.73453             0             0   9.20699e-21     0.0790089      0.189156        109936        103300   1.17341e+06      0.144759
    0.0135135        1651.5       404.684        132292       36.5714     -0.660278             0       14.9238      0.262058             0       53.5351     -0.164979             0       10.4582             0             0   5.04293e-20     0.0756538      0.223577        109948        103299   1.17427e+06      0.138612
     0.014014       1585.51       401.557        125612       35.0655     -0.931517             0       14.8852      0.197604             0       53.9909      -1.12235             0       11.1915             0             0   3.14215e-19     0.0722901      0.258086        109961        103298   1.17515e+06      0.132449
    0.0145145       1529.71       396.521        117802       33.4932      -1.16269             0       15.0635      0.147113             0       53.4138      -2.09393             0       12.2582             0             0   8.30412e-18      0.068628      0.295638        109976        103296   1.17648e+06      0.125739
     0.015015       1474.59       391.468        110016       31.9299      -1.38792             0       15.2485      0.096627             0       52.8272      -3.06526             0       13.3372             0             0   3.92288e-17     0.0649821      0.333025        109991        103294   1.17782e+06      0.119059
    0.0155155       1441.53       385.848        103029       30.6547      -1.42119             0       15.6475      0.046273             0       51.9342      -4.02866             0       14.8152             0             0   8.11711e-16     0.0618583      0.365064        110007        103292    1.1795e+06      0.113336
     0.016016       1409.39       380.255         96087       29.3862      -1.45334             0       16.0538   -0.00360074             0        51.044      -4.98319             0       16.2979             0             0   2.65146e-15      0.058786      0.396574        110024        103290    1.1812e+06      0.107707
    0.0165165       1404.79       375.495       90509.6       28.3197      -1.45197             0       16.6783    -0.0389447             0       50.2358      -5.66913             0       17.9239             0             0   3.67759e-14     0.0572715      0.412113        110041        103287   1.18354e+06      0.104932
     0.017017       1400.86       370.741       84939.8       27.2634      -1.45018             0       17.3106    -0.0726079             0        49.449      -6.31319             0        19.551             0             0    8.4252e-14     0.0558246       0.42696        110058        103283    1.1859e+06      0.102281
    0.0175175       1415.76       366.175       79585.6       26.5007      -1.43644             0       18.1636     -0.058522             0       49.2731       -5.7672             0       21.2095             0             0   5.11069e-13     0.0562966       0.42213        110075        103280   1.18889e+06      0.103146
     0.018018       1430.09       361.604       74228.2       25.7537      -1.42763             0        19.012    -0.0429995             0         49.13      -5.18303             0       22.8703             0             0   1.07692e-12     0.0567656      0.417331        110091        103276   1.19191e+06      0.104005
    0.0185185       1429.08       356.878       68785.1       25.4268      -1.55102             0       19.7387     0.0109923             0       49.8692       -3.5762             0       24.5909             0             0   5.36575e-12     0.0571547      0.413357        110109        103272   1.19574e+06      0.104718
     0.019019       1427.08       352.144         63341       25.1053      -1.67745             0       20.4508     0.0640597             0       50.5996      -1.96501             0       26.3172             0             0   4.64633e-11     0.0575325      0.409502        110127        103267    1.1996e+06       0.10541
    0.0195195       1399.89       347.224         57873       24.9156       -1.8812             0       20.7949     0.0937273             0       51.1094     -0.243077             0       28.1872             0             0    1.0194e-09     0.0576207      0.408635        110144        103263   1.20414e+06      0.105572
      0.02002       1372.07       342.318       52420.4        24.723      -2.08179             0       21.1288      0.122511             0       51.5512       1.46953             0       30.0709             0             0   6.27313e-09     0.0577092      0.407766        110161        103258   1.20871e+06      0.105734
    0.0205205       1329.08       337.739       47338.5       24.4597      -2.20674             0       21.2206      0.130077             0       50.3614       2.95841             0       32.2804             0             0   1.14266e-07     0.0578046       0.40685        110176        103253   1.21386e+06      0.105909
     0.021021       1286.19       333.202       42299.5         24.19      -2.32359             0       21.3046      0.136776             0       49.1098       4.43343             0       34.5011             0             0    4.1488e-07     0.0578552       0.40639        110191        103248   1.21902e+06      0.106002
    0.0215215        1245.7       329.628         38239       23.7727      -2.25573             0       21.2101      0.123682             0       46.4494       5.59216             0       36.9773             0             0   5.10911e-06     0.0568855      0.416335        110203        103243   1.22445e+06      0.104225
     0.022022       1206.62       326.095       34228.3       23.3625      -2.18934             0       21.1061      0.109075             0       43.7654       6.73475             0        39.459             0             0   1.23143e-05     0.0558905      0.426526        110214        103238    1.2299e+06      0.102402
    0.0225225       1198.19       323.456       31297.8       23.1056      -2.15511             0       20.7949     0.0615794             0       40.5691       7.52649             0       42.0603             0             0   7.40756e-05     0.0543454      0.442073        110219        103233   1.23561e+06     0.0995709
     0.023023       1190.89       320.848       28404.9       22.8618      -2.11584             0       20.4721     0.0120921             0       37.4042       8.29983             0       44.6634             0             0   0.000133395     0.0528289      0.457337        110224        103227   1.24132e+06     0.0967923
    0.0235235       1206.89       318.862       26291.8       22.8894      -1.97204             0       19.9089    -0.0787093             0        34.891       8.69136             0       47.3013             0             0   0.000142064     0.0519055      0.466735        110224        103222   1.24716e+06     0.0951005
     0.024024       1222.78       316.896       24202.1       22.9255      -1.82915             0       19.3419     -0.171483             0       32.4513       9.07564             0       49.9417             0             0   0.000147356     0.0510215      0.475744        110224        103217   1.25301e+06     0.0934809
    0.0245245       1236.51       315.345       22575.7       23.1282      -1.70438             0       18.6987     -0.303381             0       31.4704       9.31619             0       52.6317             0             0   8.56487e-05     0.0509192      0.477036        110222        103212   1.25901e+06     0.0932935
     0.025025        1249.6        313.81         20968       23.3298      -1.58718             0       18.0599     -0.436349             0       30.5151       9.56272             0       55.3274             0             0   2.63589e-05     0.0508306      0.478178        110221        103208   1.26501e+06     0.0931312
    0.0255255       1250.32       312.587       19717.6       23.5089      -1.61366             0       17.5055     -0.589669             0        30.046       9.92301             0       58.1337             0             0   1.29986e-05     0.0510018      0.476463        110219        103202   1.27126e+06     0.0934448
     0.026026       1249.83       311.378         18487       23.6559      -1.62556             0       16.9519      -0.74394             0       29.5512       10.2798             0       60.9429             0             0   3.26251e-07     0.0511516      0.474964        110217        103197   1.27752e+06     0.0937193
    0.0265265       1227.39       310.438       17619.3        23.217      -1.37149             0       16.4128     -0.915559             0       28.5867       10.5726             0       63.8062             0             0   1.96479e-07     0.0509121      0.477414        110220        103192   1.28413e+06     0.0932805
     0.027027       1204.58       309.511       16773.2       22.7277      -1.09556             0       15.8683      -1.08861             0       27.6072       10.8497             0        66.668             0             0    1.6018e-07     0.0506711      0.479879        110222        103186   1.29075e+06     0.0928388
    0.0275275       1175.36       308.835       16305.8        21.355     -0.436751             0       15.2311      -1.28666             0       26.3631       10.8511             0       69.5029             0             0   1.76137e-06     0.0504035      0.482613        110224        103179   1.29752e+06     0.0923486
     0.028028       1147.17       308.169       15858.7        19.989      0.228881             0       14.5893      -1.48607             0       25.1306       10.8408             0       72.3248             0             0   6.17396e-06     0.0501624      0.485063        110226        103173   1.30428e+06     0.0919068
    0.0285285       1136.49       307.694       15752.4       18.7348       1.00952             0       13.8686      -1.70815             0       24.0916       10.6349             0       74.9278             0             0   5.79786e-05     0.0503663      0.482741        110224        103166     1.311e+06     0.0922804
     0.029029       1126.98       307.221         15655       17.5388       1.79052             0       13.1442      -1.93078             0       23.0858       10.4295             0       77.5046             0             0   0.000110115     0.0505878      0.480237        110221        103159   1.31768e+06     0.0926863
    0.0295295       1136.53       306.782       15701.9       17.2882       2.57737             0       12.3605      -2.16242             0       22.6204       10.2314             0       79.6542             0             0   0.000167642     0.0510953      0.474774        110218        103152   1.32389e+06     0.0936162
      0.03003       1147.39       306.335       15744.3       17.0598       3.35417             0       11.5733       -2.3941             0       22.2012       10.0444             0       81.7628             0             0   0.000219325     0.0516575      0.468776        110214        103146   1.33004e+06     0.0946463
    0.0305305       1178.58        305.78       15717.4       17.1796       3.97363             0       10.7308      -2.62628             0       22.5052       10.0294             0       83.2293             0             0   0.000179473     0.0530764      0.454382        110207        103140   1.33525e+06     0.0972459
     0.031031       1211.16       305.215       15676.8       17.2941       4.57436             0       9.88416      -2.85766             0       22.8596       10.0281             0       84.6466             0             0   0.000138487     0.0545752      0.439173        110200        103134   1.34039e+06      0.099992
    0.0315315       1264.65        304.49       15430.5       17.3296       4.89185             0       8.97326      -3.07683             0       23.9773       10.2345             0       85.3196             0             0   8.03424e-05     0.0572835      0.411623        110194        103128   1.34436e+06      0.104954
     0.032032       1318.66       303.755       15161.7       17.3582       5.18861             0          8.06      -3.29502             0       25.1282       10.4496             0       85.9478             0             0   2.51548e-05     0.0600334      0.383634        110188        103123   1.34826e+06      0.109992
    0.0325325       1380.46       302.872       14565.4       17.2853       5.18226             0       7.11212      -3.49897             0       26.7634       10.7933             0       85.9208             0             0   1.32202e-05     0.0633917      0.349211        110191        103119   1.35107e+06      0.116145
     0.033033       1441.39       301.982       13942.4       17.2004       5.16026             0       6.16403      -3.70159             0       28.3854       11.1349             0       85.8587             0             0   2.00818e-06     0.0667206      0.315088        110195        103115   1.35384e+06      0.122245
    0.0335335       1490.02       300.976       12943.4       16.9457       4.91671             0       5.21287      -3.88548             0       29.8211       11.4459             0       85.3006             0             0    1.0223e-06     0.0696322      0.285204        110201        103113   1.35586e+06      0.127579
     0.034034       1536.62       299.969       11932.7       16.6535       4.68724             0       4.26216      -4.06784             0       31.2008       11.7416             0        84.712             0             0   1.00465e-07       0.07246      0.256181        110207        103110   1.35785e+06       0.13276
    0.0345345       1555.51       298.939       10760.2        15.847       4.65081             0       3.31775      -4.22906             0       31.8121       11.8254             0       83.7055             0             0   5.63595e-08     0.0741383      0.238953        110209        103108   1.35934e+06      0.135835
     0.035035       1572.68       297.914       9594.58       15.0318       4.63177             0       2.37368      -4.38876             0       32.3568       11.8844             0       82.6668             0             0   2.47231e-08     0.0757437      0.222474        110209        103107    1.3608e+06      0.138777
    0.0355355       1567.14       296.961       8519.86       14.1032       4.84389             0       1.43417      -4.52835             0       32.0172       11.6127             0       81.1994             0             0   1.58741e-07     0.0763811       0.21593        110198        103106   1.36171e+06      0.139944
     0.036036       1560.69       296.013       7450.46       13.1997       5.04228             0      0.494675      -4.66668             0       31.6466       11.3136             0       79.6935             0             0   9.88816e-07     0.0769878        0.2097        110187        103106   1.36255e+06      0.141056
    0.0365365       1542.56       295.123       6449.67         12.62       5.06391             0     -0.444785      -4.78862             0       30.8777       10.6609             0        77.689             0             0   1.07903e-05     0.0771983      0.207502        110172        103108   1.36243e+06      0.141442
     0.037037       1522.72       294.236       5449.55       12.0556       5.07578             0      -1.38362      -4.90877             0       30.1436       9.99758             0       75.6451             0             0   3.85838e-05     0.0773693      0.205633        110156        103109   1.36221e+06      0.141755
    0.0375375        1481.5        293.37       4457.87       11.6828       4.96573             0      -2.31465      -5.00651             0       29.8453       9.20208             0       73.1077             0             0   0.000291521     0.0770472      0.207888        110138        103112   1.36064e+06      0.141165
     0.038038       1435.28       292.509       3474.41         11.27       4.88301             0      -3.24322      -5.10158             0       29.6375       8.42633             0       70.5344             0             0     0.0010343     0.0764438      0.210903        110121        103115   1.35898e+06      0.140059
    0.0385385       1328.35       291.701        2590.9       10.3695       5.13259             0       -4.1419      -5.16412             0       30.5314       7.89077             0       67.5252             0             0    0.00773252     0.0724208      0.223173        110116        103120   1.35605e+06      0.132688
     0.039039       1216.16       290.907       1730.59       9.44272       5.40691             0      -5.03503      -5.22305             0       31.5408       7.39932             0       64.4881             0             0     0.0153313      0.067938       0.23624        110112        103126   1.35305e+06      0.124475
    0.0395395       1041.89       290.276       1144.59       8.20621       5.97363             0      -5.86261      -5.23922             0       33.9165       7.42929             0       61.1217             0             0     0.0335754     0.0580214      0.258733        110116        103132   1.34913e+06      0.106306
      0.04004       869.194       289.665       586.272       7.03979       6.52087             0      -6.68099      -5.25102             0       36.3901       7.50641             0       57.7368             0             0     0.0520811     0.0479953      0.281204        110120        103140   1.34516e+06     0.0879363
    0.0405405       714.736       289.298       346.452       6.67945       6.84419             0      -7.39372      -5.21252             0       39.9909       8.12584             0       54.1376             0             0     0.0735941     0.0367098      0.303433        110128        103148   1.34068e+06     0.0672592
     0.041041       566.573       288.948       122.314        6.3653       7.12537             0      -8.09376      -5.16898             0       43.6415        8.7758             0       50.5275             0             0     0.0944696     0.0257853      0.324729        110137        103157   1.33618e+06     0.0472435
    0.0415415       488.875       288.785       73.7305       6.56825       6.93484             0      -8.65173       -5.0689             0       47.8494       9.76744             0       46.7948             0             0      0.108208     0.0189015      0.335597        110149        103166   1.33136e+06      0.034631
     0.042042       415.271       288.629       28.3859       6.78537       6.71767             0      -9.19477      -4.96342             0        52.055       10.7639             0       43.0612             0             0      0.121429     0.0123671      0.345133        110159        103175   1.32655e+06     0.0226588
    0.0425425        386.31       288.552       18.3577       7.15702        6.2101             0      -9.57493      -4.79909             0       56.2361       11.8135             0        39.319             0             0      0.129004    0.00964306      0.340148        110155        103185   1.32174e+06     0.0176679
     0.043043       358.477       288.478        8.9167       7.53887       5.70086             0      -9.93984      -4.62898             0       60.3956       12.8413             0       35.5888             0             0      0.136639    0.00702106      0.333851        110151        103194   1.31696e+06     0.0128639
    0.0435435       342.632       288.434       5.71763       8.02915       5.17395             0      -10.1427      -4.39749             0        64.325       13.6389             0       31.9864             0             0      0.144927    0.00548341      0.313601        110136        103203   1.31241e+06     0.0100466
     0.044044       327.253       288.392       2.71272       8.51407       4.65164             0      -10.3306      -4.16085             0       68.2609       14.4061             0        28.407             0             0      0.153351    0.00398625      0.292341        110122        103212   1.30791e+06    0.00730356
    0.0445445       316.712       288.367       1.71986       8.94346       4.17704             0      -10.3636      -3.87083             0       72.2641       14.8585             0       25.0675             0             0      0.163191    0.00290865       0.26062        110105        103220   1.30385e+06     0.0053292
     0.045045       306.629       288.343       0.79682       9.37304       3.70418             0      -10.3828      -3.57685             0       76.3296       15.2759             0       21.7538             0             0      0.172932     0.0018741      0.228889        110089        103229   1.29985e+06    0.00343371
    0.0455455       301.187       288.328      0.579724       9.80444       3.24905             0      -10.2622       -3.2429             0       81.0258       15.3391             0       18.7009             0             0      0.181666    0.00127483      0.197063        110077        103236   1.29646e+06    0.00233572