#           y             T         TMean   TPrime2Mean           U_x           U_y           U_z       UMean_x       UMean_y       UMean_z UPrime2Mea... UPrime2Mea... UPrime2Mea... UPrime2Mea... UPrime2Mea... UPrime2Mea...            O2           H2O          C3H8             p         pMean   pPrime2Mean           CO2
  1.11022e-19       296.364       288.266       0.51767       41.4223  -4.38631e-18             0       17.6963   5.57823e-18             0       49.9129  -2.33355e-17             0   2.52037e-17             0             0      0.228356   0.000466791    0.00235665        109624        103347        982251   0.000855249
  0.000500501       307.875       288.342       3.58004       41.6723     -0.019774             0        17.702     0.0251473             0       49.8941     -0.105199             0      0.113621             0             0      0.226081    0.00129842    0.00371156        109629        103347        982520    0.00237896
     0.001001       319.473       288.418       6.84795       41.9238    -0.0394938             0       17.7077     0.0502959             0       49.8758     -0.210354             0       0.22749             0             0      0.223788    0.00213695    0.00506917        109633        103346        982788    0.00391529
    0.0015015       374.872       288.995       112.681       42.8782    -0.0321772             0       17.7206     0.0761499             0       50.0941     -0.293801             0      0.465294             0             0      0.213064    0.00641571    0.00777537        109636        103346        982798     0.0117548
     0.002002       431.145       289.586       238.371       43.8413    -0.0234085             0       17.7335      0.102021             0       50.3163     -0.376763             0      0.703605             0             0      0.202252     0.0107331      0.010463        109640        103346        982811      0.019665
    0.0025025       705.127       293.656       5308.44       46.9866      0.346959             0       17.7351      0.132141             0       51.4933     -0.339005             0       1.06804             0             0      0.169813     0.0246617    0.00852993        109639        103345        983374     0.0451849
     0.003003       979.375       297.736       10399.7       50.1498      0.717131             0       17.7366      0.162287             0       52.6822      -0.29981             0       1.43321             0             0      0.137365     0.0385946    0.00658867        109638        103345        983935     0.0707125
    0.0035035       1297.89       303.463       18998.8       56.2765       1.05505             0       17.7295      0.196687             0       55.8611    -0.0224535             0       1.92098             0             0      0.103585     0.0532232    0.00329317        109640        103344        984133     0.0975148
     0.004004       1614.78       309.174       27580.5       62.4123       1.38883             0       17.7225      0.231155             0       59.0609      0.257736             0       2.40983             0             0     0.0698975     0.0678103   2.58859e-05        109643        103344        984332      0.124241
    0.0045045        1730.6       312.816       34005.2       69.6683       1.20922             0       17.7204      0.274039             0       64.8607      0.889335             0       3.03143             0             0     0.0475472     0.0772534    0.00025658        109646        103343        984667      0.141543
   0.00500501       1845.44        316.44       40398.1       76.8998       1.03149             0       17.7185        0.3169             0       70.6806       1.52257             0       3.65426             0             0      0.025294     0.0866488   0.000555243        109648        103342        985003      0.158757
   0.00550551       1863.83       318.325       43655.8       81.7188       1.04027             0       17.7246      0.357393             0       78.4951       2.31815             0       4.39817             0             0     0.0126521     0.0913174    0.00758284        109648        103342        985330      0.167311
   0.00600601       1881.52        320.19       46873.2       86.4931       1.04745             0       17.7304      0.397709             0       86.2827       3.10662             0       5.14215             0             0    0.00016094     0.0959035     0.0148027        109648        103341        985657      0.175713
   0.00650651        1841.4       320.471       46766.2       87.5813      0.922318             0       17.7127      0.423376             0       91.8544       3.31041             0       5.89075             0             0   8.01092e-05     0.0936924     0.0378493        109648        103340        985909      0.171662
   0.00700701       1801.04       320.741       46640.4       88.6422      0.797264             0       17.6947      0.448878             0       97.3736       3.50717             0       6.63999             0             0   4.06834e-07     0.0914681     0.0610257        109649        103340        986162      0.167587
   0.00750751       1744.34       320.318       45192.1       87.7736       0.67783             0       17.6568      0.462739             0       99.2032       3.20828             0       7.43387             0             0   2.02086e-07      0.088321      0.093342        109648        103339        986454      0.161821
   0.00800801       1687.92       319.891       43739.7       86.8948      0.557102             0        17.619      0.476622             0       101.004       2.90858             0       8.22991             0             0   6.07916e-10     0.0851845       0.12555        109648        103338        986749      0.156074
   0.00850851       1648.57       319.254       42033.3       85.3808      0.356748             0       17.5847      0.491908             0       101.012        2.5584             0       9.15897             0             0   3.01562e-10     0.0826985       0.15108        109650        103337        987231      0.151519
   0.00900901       1609.57       318.625       40336.2       83.8671      0.155016             0       17.5501      0.507354             0       101.017       2.20946             0       10.0903             0             0    7.1601e-13     0.0802347      0.176382        109652        103336        987720      0.147005
   0.00950951       1589.59       318.401       39149.2       82.3661     -0.121927             0       17.5009      0.531533             0       100.854       1.92818             0       11.1452             0             0   3.54761e-13     0.0789813      0.189254        109658        103335        988597      0.144708
      0.01001       1569.84       318.184       37973.1       80.8708      -0.39955             0       17.4507      0.555944             0       100.682       1.65179             0       12.2017             0             0   7.29823e-16     0.0777478      0.201922        109664        103334        989474      0.142448
    0.0105105       1561.55        318.33         37330       79.6552     -0.710459             0       17.3469      0.591712             0       99.9995       1.61518             0       13.3347             0             0   3.61202e-16     0.0774856      0.204614        109675        103332        990378      0.141968
     0.011011       1553.47       318.467       36676.1       78.4424      -1.02013             0       17.2414      0.627607             0       99.2882       1.58435             0       14.4681             0             0   6.83026e-19     0.0772413      0.207123        109686        103331        991291       0.14152
    0.0115115       1554.48       318.178         35538       77.3545      -1.27459             0       17.0599      0.669114             0       97.2797       1.81002             0       15.6183             0             0   3.37678e-19     0.0777873      0.201516        109700        103329        992620      0.142521
     0.012012       1555.67       317.871       34379.5       76.2513      -1.52671             0       16.8764      0.710587             0       95.2548       2.03736             0       16.7684             0             0   6.09623e-22     0.0783452      0.195788        109714        103327        993951      0.143543
    0.0125125       1563.95       316.875       32391.3       74.5254      -1.68347             0       16.6148      0.750682             0       92.5638       2.33294             0       17.9101             0             0   3.01087e-22     0.0793814      0.185147        109726        103326        995396      0.145442
     0.013013       1572.43       315.876       30416.5       72.7854      -1.84321             0       16.3512      0.790595             0       89.8727       2.62593             0        19.051             0             0   5.64489e-25      0.080415      0.174534        109739        103324        996848      0.147335
    0.0135135       1588.46       314.774       28944.5       70.5189      -2.11412             0        16.013      0.823713             0       87.1728       2.82143             0       20.1629             0             0   2.78522e-25     0.0813493       0.16494        109746        103322        998519      0.149047
     0.014014       1604.94       313.692       27520.4       68.2904      -2.39435             0        15.674       0.85645             0       84.5233       3.01609             0       21.2738             0             0    5.6163e-28     0.0822777      0.155408        109754        103320    1.0002e+06      0.150748
    0.0145145       1636.95       313.282       27761.1       67.3782      -2.99819             0       15.3077      0.875945             0       83.6231        3.1815             0       22.3545             0             0   5.52213e-28      0.082997      0.148025        109755        103319   1.00224e+06      0.152066
     0.015015       1669.32       312.893       28042.8       66.5563       -3.6098             0       14.9418      0.894783             0       82.7938       3.34052             0       23.4341             0             0   2.11933e-27     0.0837117      0.140689        109756        103317   1.00429e+06      0.153375
    0.0155155       1712.91        313.18       29651.9       68.6526      -4.47268             0       14.5872      0.892379             0       84.2542       3.29291             0       24.4812             0             0   5.46609e-26     0.0842757      0.134902        109754        103315   1.00666e+06      0.154409
     0.016016       1756.13       313.469       31261.4         70.79      -5.34231             0       14.2332      0.889426             0       85.7573       3.24077             0       25.5281             0             0   3.31963e-25     0.0848315        0.1292        109751        103313   1.00902e+06      0.155427
    0.0165165       1787.98       313.822       32885.6       74.1708      -6.41577             0       13.8957      0.869833             0        88.552        3.0519             0       26.5692             0             0   7.40827e-24      0.085136      0.126078        109749        103312   1.01125e+06      0.155985
     0.017017        1819.2       314.164         34477       77.5124      -7.48407             0       13.5587      0.849945             0       91.3211       2.85986             0       27.6101             0             0   3.84032e-23     0.0854356      0.123006        109747        103310   1.01348e+06      0.156534
    0.0175175       1832.49       314.161       35135.3        79.739      -8.40566             0       13.2331      0.821668             0       93.3627       2.57808             0       28.6459             0             0   7.48968e-22      0.085595      0.121371        109746        103309   1.01564e+06      0.156826
     0.018018       1845.51       314.151       35767.9       81.8805      -9.28681             0       12.9077      0.793448             0       95.3215       2.29954             0       29.6817             0             0   3.32411e-21      0.085754      0.119741        109746        103307   1.01781e+06      0.157117
    0.0185185       1851.73       313.907       35714.2       81.7453      -9.08526             0       12.5907      0.766753             0       95.0622       2.10767             0       30.7193             0             0   5.58286e-20     0.0859022      0.118222        109749        103306    1.0199e+06      0.157389
     0.019019        1857.9       313.659         35646       81.5059      -8.86378             0       12.2738      0.740036             0       94.7068       1.91355             0       31.7587             0             0   4.00557e-19     0.0860528      0.116678        109751        103304     1.022e+06      0.157665
    0.0195195        1862.8       313.284       35210.7       78.6289      -8.13784             0       11.9613      0.712741             0       91.9178       1.66246             0       32.8433             0             0   8.14318e-18     0.0862641      0.114511        109754        103303   1.02422e+06      0.158052
      0.02002       1867.55       312.899       34752.8       75.7597      -7.43832             0       11.6489       0.68533             0       89.0686       1.40584             0       33.9316             0             0   5.86273e-17     0.0864765      0.112333        109757        103302   1.02642e+06      0.158441
    0.0205205       1868.84        312.27       33753.7       73.0798      -7.37286             0       11.3409       0.65518             0       84.7731       1.01656             0       35.1082             0             0   1.13491e-15     0.0867137        0.1099        109759        103300    1.0284e+06      0.158876
     0.021021       1869.91       311.617       32714.1       70.4675      -7.33282             0       11.0327      0.624989             0       80.4479      0.626666             0       36.2861             0             0   8.10183e-15     0.0869483      0.107494        109760        103299   1.03037e+06      0.159306
    0.0215215       1866.03       310.412         30750       69.3981      -7.87257             0       10.7222      0.593873             0       75.4452       0.22304             0       37.4929             0             0   1.49431e-13     0.0871226      0.105707        109760        103298   1.03219e+06      0.159625
     0.022022       1861.97       309.192         28763       68.3067      -8.39933             0       10.4114      0.562806             0       70.4466     -0.174695             0       38.6961             0             0   1.05377e-12     0.0872963      0.103925        109759        103297   1.03401e+06      0.159943
    0.0225225       1854.14       307.637       26275.9        66.736      -8.64384             0       10.0955      0.532786             0       65.5351      -0.44443             0       39.8189             0             0   1.85362e-11     0.0874584      0.102262        109760        103296   1.03586e+06       0.16024
     0.023023       1846.01       306.079       23782.7       65.1426      -8.87764             0        9.7795      0.502559             0       60.6647     -0.716026             0       40.9375             0             0   9.78739e-11     0.0876196      0.100608        109761        103294    1.0377e+06      0.160536
    0.0235235       1831.46       304.475       21164.3       63.0789      -8.88932             0        9.4641      0.468038             0       56.6445      -1.02621             0       41.9697             0             0   1.46003e-09     0.0877639     0.0991281        109762        103294   1.03917e+06        0.1608
     0.024024       1816.03       302.864       18531.6       60.9811      -8.87137             0       9.14871       0.43325             0       52.6241      -1.32953             0       42.9915             0             0   1.14192e-08     0.0879045     0.0976856        109763        103293   1.04063e+06      0.161058
    0.0245245       1783.16       301.125       15614.7       58.2085      -8.26567             0       8.83372      0.393175             0       48.6009      -1.49671             0       43.8069             0             0   1.91886e-07     0.0879738     0.0969756        109773        103292   1.04177e+06      0.161184
     0.025025       1749.19       299.363       12679.5       55.4908      -7.62937             0       8.51888      0.353053             0       44.5437      -1.64631             0       44.6096             0             0   1.52089e-06     0.0880377     0.0963155        109783        103292   1.04287e+06      0.161301
    0.0255255       1694.35       297.158       9396.13       53.8161      -6.41164             0       8.20682      0.312007             0       39.8408        -1.462             0       45.1723             0             0   2.46721e-05     0.0880002     0.0966012        109796        103292   1.04288e+06      0.161233
     0.026026       1637.69        294.97       6167.57       52.1027      -5.24351             0       7.89624      0.270825             0       35.1972      -1.27868             0       45.7255             0             0   0.000131711     0.0879228     0.0969333        109812        103292   1.04288e+06      0.161091
    0.0265265       1547.91       293.078        3938.6       49.6819      -4.97976             0       7.61271      0.227161             0       31.6348       -1.1133             0       46.1054             0             0    0.00176809     0.0871152     0.0981103        109848        103292   1.04253e+06      0.159611
     0.027027       1456.22       291.247       1798.58       47.1602      -4.69274             0       7.33244      0.183345             0       28.2125     -0.959506             0       46.4773             0             0    0.00360591     0.0862125     0.0993872        109885        103292   1.04219e+06      0.157957
    0.0275275       1330.82       290.485       1216.95         42.87      -3.99808             0       7.10929      0.136854             0       27.2449      -1.00859             0        46.711             0             0    0.00897261     0.0836446      0.102415        109917        103292   1.04205e+06      0.153252
     0.028028       1206.52       289.752       658.527       38.6788      -3.31658             0        6.8891     0.0902327             0       26.3694      -1.07255             0       46.9407             0             0     0.0144807     0.0810109      0.105504        109949        103292   1.04184e+06      0.148427
    0.0285285       1100.79       289.517       491.396       36.1571      -2.85673             0       6.71864     0.0414198             0       27.0457      -1.38711             0       47.1042             0             0     0.0223717     0.0772684      0.109612        109960        103292   1.04054e+06       0.14157
     0.029029       997.634       289.292       330.752        33.699      -2.45023             0       6.54939    -0.0074208             0       27.7321      -1.70913             0       47.2581             0             0     0.0302767     0.0735264      0.113655        109973        103293   1.03921e+06      0.134714
    0.0295295       936.283       289.217       275.452        32.273       -2.9103             0       6.39985    -0.0567112             0       28.5821      -2.15208             0       47.2566             0             0     0.0384082     0.0697921      0.116633        109992        103293   1.03748e+06      0.127872
      0.03003       876.847       289.145       221.927       30.8861      -3.33005             0       6.25078     -0.105853             0       29.4191      -2.59795             0       47.2391             0             0     0.0464174     0.0661167      0.119537        110013        103294   1.03573e+06      0.121138
    0.0305305       847.404       289.107       196.215       30.1134      -3.11826             0       6.10913     -0.152657             0       30.0518      -3.08947             0       46.9711             0             0     0.0525122     0.0633647      0.121287        110065        103295   1.03365e+06      0.116096
     0.031031       819.919       289.071       171.943       29.3869      -2.88528             0       5.96786     -0.198966             0       30.6804      -3.58002             0       46.6831             0             0     0.0583167     0.0607444      0.122947        110117        103296   1.03157e+06      0.111295
    0.0315315       822.051       289.056       169.457       29.3579      -2.33175             0       5.83217     -0.237765             0       31.2486        -4.056             0       46.0917             0             0     0.0597282     0.0601169      0.123249        110173        103297   1.02947e+06      0.110145
     0.032032       824.641       289.042       167.325       29.3524      -1.76255             0       5.69758     -0.275758             0       31.8198      -4.52649             0       45.4796             0             0     0.0610012     0.0595507      0.123525        110229        103298   1.02737e+06      0.109108
    0.0325325       833.938        289.03       170.374       29.6898     -0.964037             0       5.57918     -0.301946             0       32.4358      -4.91663             0        44.563             0             0     0.0602469     0.0598801      0.123422        110260        103300   1.02522e+06      0.109712
     0.033033       841.832       289.017       172.509        30.008     -0.166168             0       5.46319      -0.32729             0       33.0612      -5.30254             0       43.6303             0             0     0.0596199     0.0601467      0.123411        110291        103301   1.02307e+06        0.1102
    0.0335335       829.876       288.985       161.714       30.0547      0.622623             0       5.38124     -0.340687             0       33.8207      -5.62856             0       42.4695             0             0     0.0607943     0.0595239      0.124698        110328        103303   1.02092e+06      0.109059
     0.034034       816.341       288.952        150.15       30.0896       1.39834             0       5.30245     -0.353526             0       34.5979      -5.95183             0       41.2985             0             0     0.0621586     0.0588047      0.126149        110362        103304   1.01876e+06      0.107741
    0.0345345       781.181       288.905       128.054       29.9645       1.99493             0       5.26682     -0.358729             0        35.619      -6.23744             0       39.9863             0             0     0.0661254     0.0567646      0.129844        110353        103306   1.01657e+06      0.104003
     0.035035        744.74       288.857       105.821        29.838       2.59892             0       5.23449     -0.363768             0       36.6547      -6.51746             0       38.6674             0             0     0.0703604     0.0545798      0.133858        110341        103308   1.01437e+06           0.1
    0.0355355       691.288       288.808       81.7918       29.6933       3.30123             0       5.24599     -0.366633             0       37.8846      -6.72328             0       37.2587             0             0     0.0781597     0.0504729      0.142105        110281        103310   1.01213e+06     0.0924757
     0.036036       638.074       288.761       58.3754       29.5384       4.01069             0       5.26012     -0.369288             0       39.1269      -6.92628             0       35.8461             0             0      0.085998     0.0463395      0.150454        110222        103312    1.0099e+06     0.0849027
    0.0365365       587.925       288.727       42.8632       29.2504       4.81231             0       5.30806     -0.369245             0       40.5272      -7.09298             0       34.3832             0             0     0.0943394     0.0418658      0.160109        110179        103314   1.00764e+06     0.0767059
     0.037037       540.129       288.694        28.176       28.9923       5.60289             0       5.35763     -0.368708             0       41.9463      -7.26358             0       32.9168             0             0      0.102281     0.0375878      0.169492        110137        103315   1.00539e+06     0.0688678
    0.0375375       521.775       288.682       23.8122       29.1079       6.25531             0       5.42762     -0.361976             0       43.6005      -7.48308             0       31.4085             0             0      0.105222     0.0357592      0.175474        110116        103317   1.00321e+06     0.0655175
     0.038038        504.05        288.67       19.6152       29.2244       6.95769             0       5.49923     -0.354812             0       45.2553      -7.70857             0       29.8986             0             0      0.108043     0.0339856      0.181416        110095        103319   1.00102e+06      0.062268
    0.0385385       493.986       288.659       17.4465       29.3505       8.26766             0       5.59055     -0.342392             0       46.9175       -8.0069             0       28.3701             0             0      0.109396     0.0328801      0.186881        110079        103321        998787     0.0602425
     0.039039       481.951       288.648       15.1177       29.4084       9.58417             0       5.68381      -0.32985             0       48.5491      -8.30839             0       26.8427             0             0       0.11117     0.0315475      0.192847        110063        103323        996541     0.0578009
    0.0395395       446.618       288.627       10.8977       28.6606        10.978             0       5.80019     -0.315872             0       49.8182      -8.64729             0       25.3267             0             0      0.117926     0.0275306      0.204715        110059        103325        994104     0.0504413
      0.04004       412.335       288.607       6.87757       27.9267       12.2812             0       5.91754     -0.301976             0       51.0692      -8.98253             0       23.8119             0             0      0.124512     0.0236098      0.216332        110055        103327        991682     0.0432575
    0.0405405       390.134       288.596       5.15671       27.3519        12.542             0       6.04612     -0.289033             0       52.1117      -9.27574             0        22.312             0             0       0.12916     0.0207932      0.225053        110059        103329        989418      0.038097
     0.041041       371.608       288.586        3.8274       26.8874       12.8049             0       6.17326     -0.275918             0       53.1818      -9.56002             0        20.816             0             0      0.132968     0.0184399      0.232673        110061        103331        987201     0.0337853
    0.0415415        394.23       288.595       6.88139       27.6568       13.0921             0       6.28431     -0.260898             0       54.5615      -9.74427             0       19.3646             0             0      0.127373     0.0212729      0.227974        110048        103333        985510     0.0389759
     0.042042       417.151       288.605       9.94515       28.4385       13.4493             0       6.39269     -0.245646             0       55.9721      -9.91495             0       17.9161             0             0      0.121561     0.0242232      0.223022        110035        103335        983864     0.0443815
    0.0425425       443.315       288.611       13.1155       29.3523       14.5704             0       6.47191     -0.227872             0       57.7185      -9.93766             0       16.4997             0             0      0.113369     0.0284529       0.21531        110026        103336        982706      0.052131
     0.043043        466.37       288.616       15.8655        30.158       15.6154             0       6.54917     -0.210465             0       59.4452      -9.93712             0        15.079             0             0      0.105743     0.0323836      0.208205        110017        103338        981581     0.0593328
    0.0435435       456.391       288.603       14.1486       29.8151       15.8521             0       6.60568     -0.196952             0       60.9612      -9.68946             0       13.6135             0             0       0.10412     0.0331374      0.207559        109994        103340        980794     0.0607139
     0.044044       444.545        288.59       12.2794       29.4735       15.9413             0       6.65962     -0.184236             0       62.4407      -9.41447             0       12.1467             0             0      0.103013      0.033604      0.207617        109970        103342        980067     0.0615688
    0.0445445        413.36        288.57       8.83266       29.1456       14.5021             0       6.68698     -0.179786             0       63.5418      -8.85623             0       10.6673             0             0      0.107247      0.031094      0.214968        109933        103343        979953       0.05697
     0.045045       382.907       288.551       5.55431       28.8782       13.0274             0       6.70917      -0.17539             0       64.6386      -8.27678             0       9.19677             0             0      0.111661     0.0284321      0.223093        109897        103345        979896     0.0520929
    0.0455455       359.858       288.532       3.97851       29.2223       11.1929             0       6.67916     -0.171545             0       65.6914       -7.4828             0       7.81614             0             0      0.117899     0.0242341      0.239035        109869        103347        980412     0.0444014