#           y             T         TMean   TPrime2Mean           U_x           U_y           U_z       UMean_x       UMean_y       UMean_z UPrime2Mea... UPrime2Mea... UPrime2Mea... UPrime2Mea... UPrime2Mea... UPrime2Mea...            O2           H2O          C3H8             p         pMean   pPrime2Mean           CO2
  1.11022e-19       289.284       288.568     0.0902917       37.2216   1.41442e-17             0       12.8127   1.45232e-18             0       37.7166   1.00258e-17             0   7.56149e-18             0             0      0.226661   2.93806e-16     0.0145171        107491        103214        475720   5.38307e-16
  0.000500501       289.286       288.577      0.089004       37.2226     0.0637634             0       12.7746    0.00654719             0       37.3842     0.0451973             0      0.034088             0             0      0.226462    3.0258e-16     0.0153827        107491        103214        475715   5.54383e-16
     0.001001       289.289       288.586     0.0877243       37.2235      0.127536             0       12.7364     0.0130961             0       37.0505      0.090457             0     0.0682763             0             0      0.226262    3.1139e-16     0.0162525        107491        103214        475709   5.70524e-16
    0.0015015       289.299       288.603     0.0904619       37.2253      0.195843             0       12.6518     0.0204765             0       36.0767      0.166794             0       0.15249             0             0      0.225588   3.38163e-16     0.0191844        107491        103214        475690   6.19578e-16
     0.002002        289.31       288.619     0.0932267       37.2271      0.264195             0       12.5673     0.0278531             0        35.102      0.243187             0       0.23693             0             0      0.224911   3.64996e-16     0.0221267        107491        103214        475670   6.68742e-16
    0.0025025        289.33       288.632      0.102794       37.2346      0.343489             0       12.4901     0.0342684             0       33.9273      0.333658             0      0.377539             0             0      0.223634   4.06718e-16      0.027679        107492        103213        475642   7.45182e-16
     0.003003        289.35       288.644      0.112361       37.2421      0.422874             0       12.4131      0.040678             0       32.7546       0.42404             0      0.518455             0             0      0.222355   4.48456e-16     0.0332392        107492        103213        475614   8.21655e-16
    0.0035035       289.348        288.65      0.121661       37.2725      0.517442             0       12.3601     0.0461428             0       31.9001      0.499651             0      0.710265             0             0      0.220774   4.93061e-16     0.0401129        107493        103213        475594   9.03381e-16
     0.004004       289.345       288.656      0.130919       37.3032      0.612161             0       12.3072     0.0516143             0       31.0486      0.575166             0      0.902422             0             0      0.219193   5.37631e-16     0.0469869        107494        103213        475575   9.85041e-16
    0.0045045       289.302       288.661      0.134895       37.3757      0.725626             0       12.2588     0.0579031             0       30.5777      0.638665             0       1.13771             0             0      0.217601   5.77775e-16      0.053906        107496        103212        475547   1.05859e-15
   0.00500501       289.259       288.666      0.138784       37.4483      0.839371             0       12.2104     0.0642131             0       30.1101      0.702099             0        1.3734             0             0      0.216009   6.17896e-16     0.0608283        107497        103212        475520    1.1321e-15
   0.00550551       289.215       288.674      0.134014       37.5387      0.980799             0       12.1528     0.0726206             0       29.9682      0.759146             0       1.64995             0             0      0.214345   6.55646e-16     0.0680642        107500        103212        475506   1.20126e-15
   0.00600601       289.171       288.683      0.129185       37.6284       1.12258             0       12.0952     0.0810354             0       29.8295      0.816023             0       1.92707             0             0      0.212679   6.93412e-16     0.0753085        107502        103211        475492   1.27046e-15
   0.00650651       289.156       288.693      0.119571       37.6594       1.29356             0        12.034     0.0900595             0       29.9546      0.858997             0       2.25098             0             0      0.210851   7.32553e-16     0.0832582        107505        103211        475510   1.34217e-15
   0.00700701       289.141       288.703      0.110005       37.6887       1.46469             0       11.9729     0.0990707             0       30.0823      0.901611             0       2.57567             0             0      0.209022   7.71736e-16     0.0912107        107508        103210        475528   1.41396e-15
   0.00750751       289.145        288.71      0.103737       37.6004       1.64642             0       11.9184      0.107169             0       30.3875       0.91882             0       2.95601             0             0      0.207145   8.13864e-16     0.0993679        107510        103210        475591   1.49115e-15
   0.00800801       289.149       288.717     0.0975269       37.5106       1.82792             0        11.864      0.115247             0       30.6932       0.93572             0       3.33738             0             0      0.205276   8.55932e-16      0.107495        107513        103210        475654   1.56823e-15
   0.00850851       289.157       288.719     0.0948436       37.3278        1.9954             0       11.8191      0.122015             0       31.0263       0.93359             0       3.78167             0             0      0.203828   8.94314e-16      0.113792        107514        103209        475768   1.63855e-15
   0.00900901       289.164       288.722     0.0921773       37.1448       2.16242             0       11.7743      0.128751             0       31.3562       0.93152             0       4.22711             0             0      0.202396   9.32408e-16      0.120019        107515        103209        475883   1.70835e-15
   0.00950951       289.164       288.722     0.0904396       36.9498       2.30444             0       11.7393      0.133747             0       31.5065      0.932739             0       4.73494             0             0      0.201831   9.54778e-16      0.122476        107514        103208        476048   1.74933e-15
      0.01001       289.164       288.722     0.0887129       36.7552       2.44556             0       11.7045      0.138701             0       31.6509      0.934213             0       5.24392             0             0      0.201276   9.76895e-16       0.12489        107513        103207        476214   1.78985e-15
    0.0105105       289.163       288.722     0.0875224       36.5835       2.54226             0       11.6792      0.141637             0        31.504      0.948225             0       5.80885             0             0      0.201216   9.86671e-16      0.125148        107509        103207        476406   1.80776e-15
     0.011011       289.163       288.721     0.0863361        36.412       2.63745             0       11.6541      0.144528             0       31.3505      0.962283             0       6.37483             0             0      0.201153   9.96507e-16      0.125423        107506        103206        476599   1.82579e-15
    0.0115115       289.172        288.72     0.0853361       36.2552       2.66498             0       11.6359      0.145384             0       30.9089      0.978427             0       6.98791             0             0      0.200913   1.00904e-15      0.126467        107499        103205        476780   1.84875e-15
     0.012012       289.182       288.718     0.0843405       36.0991       2.69129             0       11.6177      0.146198             0        30.461      0.994521             0       7.60178             0             0      0.200663   1.02193e-15      0.127557        107492        103205        476961   1.87236e-15
    0.0125125       289.202       288.716     0.0835202         35.97        2.6676             0       11.6016      0.145325             0       29.7553       1.00858             0       8.24766             0             0      0.199985   1.04907e-15      0.130502        107482        103204        477133   1.92209e-15
     0.013013       289.223       288.714     0.0827016       35.8417        2.6435             0       11.5853      0.144454             0       29.0426       1.02337             0       8.89341             0             0      0.199298   1.07661e-15      0.133492        107471        103203        477303   1.97255e-15
    0.0135135        289.25       288.713     0.0819483       35.7452       2.60344             0       11.5623      0.143661             0        28.069       1.06571             0       9.53387             0             0      0.198225    1.1191e-15      0.138156        107458        103203        477427   2.05039e-15
     0.014014       289.277       288.713     0.0811975       35.6501       2.56278             0       11.5387      0.142951             0       27.0879       1.10974             0       10.1726             0             0      0.197151   1.16184e-15      0.142824        107445        103202        477549    2.1287e-15
    0.0145145       289.302       288.713     0.0805363       35.6036       2.50121             0       11.4966      0.145166             0       25.8493       1.21203             0       10.7516             0             0      0.196052   1.21336e-15      0.147602        107429        103201        477607   2.22311e-15
     0.015015       289.327       288.713     0.0798855       35.5615       2.43808             0       11.4537      0.147482             0       24.6052       1.31539             0        11.328             0             0       0.19496   1.26482e-15      0.152352        107413        103200        477664   2.31738e-15
    0.0155155       289.352       288.713     0.0795683       35.6613       2.32453             0       11.3873      0.153111             0       23.1832       1.45341             0       11.8228             0             0      0.194071   1.31391e-15      0.156214        107396        103200        477682   2.40734e-15
     0.016016       289.377       288.713     0.0792575        35.765       2.20922             0       11.3203       0.15873             0       21.7585       1.59048             0       12.3157             0             0      0.193182   1.36299e-15      0.160081        107378        103199        477698   2.49725e-15
    0.0165165        289.42       288.713     0.0791387       35.9858       2.04105             0       11.2363      0.164061             0       20.2572       1.69891             0       12.7504             0             0      0.192262   1.41143e-15       0.16408        107361        103198        477658     2.586e-15
     0.017017       289.463       288.713     0.0790169       36.1965        1.8752             0        11.152      0.169274             0       18.7563       1.80503             0       13.1831             0             0      0.191333    1.4601e-15      0.168119        107343        103198        477615   2.67518e-15
    0.0175175       289.521       288.713     0.0788093        36.122       1.77523             0        11.059      0.171118             0       17.2689       1.84587             0       13.5608             0             0      0.190146   1.51528e-15       0.17328        107326        103197        477505   2.77628e-15
     0.018018       289.578       288.712     0.0785887       36.0257        1.6798             0       10.9659      0.172846             0       15.7887       1.88447             0       13.9349             0             0      0.188969    1.5698e-15      0.178396        107309        103197        477392   2.87616e-15
    0.0185185       289.617       288.712     0.0780204       35.3496       1.70572             0       10.8676      0.171478             0       14.5015       1.86319             0       14.2107             0             0      0.188065   1.60624e-15      0.182325        107292        103197        477191   2.94294e-15
     0.019019       289.655       288.711     0.0774314       34.6622       1.73253             0       10.7693      0.170014             0       13.2308       1.84024             0       14.4812             0             0      0.187186   1.64163e-15      0.186148        107276        103196        476988   3.00778e-15
    0.0195195       289.662        288.71     0.0763176        33.686        1.7818             0       10.6705      0.166135             0       12.3765       1.77471             0       14.6186             0             0      0.186927    1.6502e-15      0.187272        107262        103196        476690   3.02348e-15
      0.02002       289.668        288.71     0.0751665        32.715       1.82977             0       10.5719      0.162135             0       11.5434       1.70793             0       14.7504             0             0      0.186688   1.65817e-15      0.188311        107247        103196        476389   3.03808e-15
    0.0205205       289.638        288.71     0.0731204       31.8668       1.84647             0        10.478      0.155229             0       11.2181       1.61083             0       14.7463             0             0      0.186922   1.65163e-15      0.187295        107235        103196        476018   3.02609e-15
     0.021021       289.606       288.711     0.0710491       31.0309       1.86121             0       10.3843      0.148216             0       10.9126         1.513             0       14.7364             0             0      0.187194   1.64395e-15      0.186115        107222        103196        475645   3.01202e-15
    0.0215215       289.529       288.712     0.0684024        30.477       1.83144             0       10.2949      0.138785             0       11.0571       1.39817             0       14.5915             0             0      0.188324   1.61035e-15      0.181199        107211        103196        475218   2.95045e-15
     0.022022       289.453       288.714     0.0657621       29.9342       1.80022             0       10.2055      0.129329             0       11.2171        1.2835             0       14.4403             0             0       0.18948   1.57589e-15      0.176173        107201        103196        474788   2.88732e-15
    0.0225225       289.377       288.716     0.0632626       29.6337       1.73764             0       10.1158      0.119357             0       11.7151       1.17216             0       14.1531             0             0      0.191184   1.52276e-15      0.168767        107191        103197        474298   2.78999e-15
     0.023023       289.303       288.719     0.0607857       29.3377       1.67559             0       10.0259      0.109424             0       12.2246       1.06177             0         13.86             0             0      0.192858   1.47043e-15      0.161486        107182        103197        473806    2.6941e-15
    0.0235235       289.272       288.722     0.0587789       29.1359       1.62467             0       9.93389       0.10032             0       12.9718      0.971105             0       13.4436             0             0      0.193938   1.43446e-15       0.15679        107174        103197        473262   2.62819e-15
     0.024024       289.242       288.724     0.0568002       28.9351       1.57461             0       9.84187     0.0912771             0       13.7266      0.881879             0       13.0222             0             0      0.194978   1.39969e-15       0.15227        107165        103198        472717    2.5645e-15
    0.0245245       289.239       288.727     0.0553796       28.7546       1.54179             0       9.75003     0.0834457             0       14.6338      0.821267             0       12.5027             0             0       0.19522     1.389e-15      0.151216        107158        103199        472146   2.54491e-15
     0.025025       289.235        288.73     0.0539694       28.5758       1.50831             0       9.65848     0.0756963             0       15.5451      0.762648             0       11.9796             0             0      0.195436   1.37916e-15      0.150276        107150        103199        471574   2.52687e-15
    0.0255255       289.246       288.734     0.0527576       28.4313       1.46231             0        9.5726     0.0695057             0       16.5332      0.741915             0       11.3892             0             0      0.195157   1.38547e-15      0.151489        107143        103200        470965   2.53844e-15
     0.026026       289.257       288.737     0.0515385       28.2911        1.4141             0       9.48727     0.0634164             0       17.5198      0.723292             0       10.7972             0             0      0.194875   1.39229e-15      0.152717        107135        103201        470356   2.55093e-15
    0.0265265       289.288       288.742     0.0501862       28.2303       1.32566             0       9.41212     0.0591728             0       18.4767      0.743157             0       10.1745             0             0      0.194533   1.40826e-15      0.154206        107128        103202        469725   2.58019e-15
     0.027027       289.321       288.747     0.0488359       28.1719       1.23451             0       9.33744     0.0550196             0       19.4207      0.764446             0       9.55209             0             0      0.194186   1.42487e-15      0.155715        107122        103202        469093   2.61064e-15
    0.0275275       289.386       288.755     0.0475183       28.1584        1.0958             0        9.2708     0.0524472             0        20.139      0.810697             0       8.93412             0             0      0.193757   1.45289e-15      0.157578        107115        103203        468451   2.66196e-15
     0.028028       289.451       288.762     0.0462321        28.137       0.95887             0       9.20456     0.0499443             0       20.8375      0.857284             0       8.31802             0             0       0.19333    1.4823e-15      0.159433        107109        103204        467810   2.71585e-15
    0.0285285       289.512        288.77      0.045475       27.9836      0.851961             0       9.14509     0.0486116             0       21.2046      0.909545             0       7.73354             0             0      0.192931   1.53527e-15       0.16117        107102        103204        467195   2.81289e-15
     0.029029       289.569       288.778     0.0447667       27.8268      0.746209             0       9.08633     0.0473676             0       21.5565      0.960821             0       7.15236             0             0      0.192572   1.58737e-15      0.162732        107096        103205        466585   2.90836e-15
    0.0295295       289.575       288.783     0.0448506       27.6154      0.659253             0       9.03927      0.047564             0       21.6622      0.996095             0       6.62502             0             0      0.192864   1.62548e-15      0.161462        107089        103205        466055   2.97818e-15
      0.03003       289.579       288.788     0.0449613       27.4163      0.567548             0       8.99313      0.047889             0       21.7571       1.02993             0       6.10218             0             0      0.193209   1.66108e-15       0.15996        107082        103206        465532   3.04341e-15
    0.0305305       289.553       288.789     0.0454926       27.4113      0.401441             0       8.96144     0.0502272             0       21.6832        1.0412             0        5.6498             0             0      0.194392   1.65735e-15      0.154816        107076        103207        465108   3.03657e-15
     0.031031       289.527        288.79       0.04602       27.4197      0.230533             0       8.93055       0.05268             0       21.6018       1.05167             0       5.20234             0             0      0.195591    1.6527e-15      0.149605        107069        103207        464689   3.02805e-15
    0.0315315       289.509       288.789     0.0464892       27.6314    -0.0129948             0       8.91173     0.0568666             0        21.406        1.0501             0       4.82936             0             0      0.197023   1.63408e-15      0.143378        107062        103208        464347   2.99394e-15
     0.032032       289.493       288.787     0.0469502        27.845     -0.258913             0       8.89331     0.0611025             0       21.2074       1.04836             0       4.46081             0             0      0.198402   1.61652e-15      0.137385        107055        103208        464010   2.96177e-15
    0.0325325       289.501       288.785     0.0472915       28.0856     -0.539784             0        8.8807     0.0660587             0        20.968       1.04414             0        4.1572             0             0      0.198992   1.61447e-15      0.134817        107048        103208        463758   2.95801e-15
     0.033033       289.512       288.783      0.047631        28.316     -0.818703             0       8.86793     0.0709894             0       20.7267       1.03965             0        3.8571             0             0      0.199486   1.61595e-15       0.13267        107041        103209        463512   2.96072e-15
    0.0335335       289.555        288.78     0.0479465        28.401      -1.07001             0       8.85286     0.0755576             0       20.4572       1.03122             0       3.60671             0             0      0.198612   1.66736e-15      0.136469        107033        103209        463336   3.05492e-15
     0.034034       289.599       288.778     0.0482346       28.4728       -1.3164             0       8.83734     0.0800573             0       20.1848       1.02206             0       3.35894             0             0        0.1977   1.72009e-15      0.140434        107026        103209        463164   3.15153e-15
    0.0345345       289.653       288.773     0.0481493       28.3633      -1.49545             0       8.81582     0.0836179             0       19.8722       1.00285             0       3.14715             0             0      0.196263   1.79091e-15      0.146682        107017        103210        463048   3.28129e-15
     0.035035       289.707       288.769     0.0480284       28.2429      -1.66949             0       8.79397     0.0870895             0       19.5565      0.982647             0       2.93731             0             0      0.194853    1.8604e-15      0.152815        107009        103210        462937    3.4086e-15
    0.0355355       289.743       288.763      0.047434       27.9765      -1.77692             0       8.76782     0.0893794             0       19.1992      0.949299             0       2.75342             0             0      0.193794   1.91215e-15      0.157417        107000        103210        462896   3.50341e-15
     0.036036       289.778       288.758     0.0468512       27.7026      -1.87914             0       8.74155     0.0915704             0       18.8386      0.914855             0       2.57099             0             0       0.19276    1.9626e-15      0.161911        106992        103210        462860   3.59586e-15
    0.0365365       289.801       288.751     0.0464167       27.3327      -1.91428             0       8.71384      0.092486             0       18.4349      0.866287             0       2.40739             0             0      0.192049   1.99635e-15      0.165006        106983        103211        462878   3.65769e-15
     0.037037       289.823       288.744     0.0460378       26.9607      -1.94539             0       8.68613     0.0933056             0       18.0285      0.816893             0       2.24486             0             0      0.191373   2.02838e-15      0.167942        106975        103211        462901   3.71636e-15
    0.0375375       289.845       288.738     0.0463551       26.5632      -1.92597             0        8.6584     0.0929249             0       17.5873      0.757158             0       2.09575             0             0      0.191154   2.03886e-15      0.168896        106967        103211        462987   3.73557e-15
     0.038038       289.867       288.732     0.0467187       26.1675      -1.90519             0       8.63064     0.0924631             0       17.1441      0.697392             0       1.94743             0             0      0.190958   2.04816e-15       0.16975        106959        103211        463080   3.75261e-15
    0.0385385       289.886       288.728     0.0476463       25.7938      -1.86775             0       8.60267     0.0910163             0       16.6746      0.637262             0       1.80879             0             0       0.19104   2.04303e-15      0.169391        106952        103211        463254   3.74321e-15
     0.039039       289.905       288.724     0.0485917       25.4233       -1.8308             0       8.57463     0.0895151             0       16.2041      0.578031             0       1.67076             0             0      0.191127   2.03757e-15      0.169015        106944        103211        463436    3.7332e-15
    0.0395395       289.917       288.722     0.0497469       25.0909       -1.7996             0       8.54576     0.0873721             0       15.7212      0.529424             0        1.5399             0             0      0.191257   2.02816e-15      0.168449        106936        103211        463705   3.71597e-15
      0.04004        289.93       288.719     0.0509121       24.7617      -1.76846             0       8.51685     0.0851833             0       15.2397      0.482036             0       1.40963             0             0      0.191383   2.01916e-15      0.167899        106929        103211        463981   3.69948e-15
    0.0405405        289.95       288.718     0.0521919       24.4691      -1.73785             0       8.48755     0.0824673             0       14.7747      0.448672             0       1.28616             0             0      0.191468   2.01478e-15      0.167531        106921        103212        464342   3.69145e-15
     0.041041        289.97       288.716     0.0534746       24.1788      -1.70613             0       8.45834     0.0796889             0       14.3142      0.416005             0       1.16342             0             0      0.191551   2.01055e-15       0.16717        106914        103212        464707    3.6837e-15
    0.0415415        289.99       288.715     0.0547898       23.9132      -1.66195             0       8.43026     0.0762128             0       13.9045      0.391136             0       1.04892             0             0      0.191615   2.00807e-15       0.16689        106907        103212        465124   3.67915e-15
     0.042042        290.01       288.715     0.0561239       23.6499      -1.61579             0       8.40237     0.0726574             0       13.5011      0.366234             0      0.935283             0             0      0.191679   2.00557e-15      0.166615        106900        103212        465542   3.67458e-15
    0.0425425       290.023       288.715      0.057664       23.4123      -1.54789             0       8.37648     0.0682375             0        13.167      0.340966             0      0.831147             0             0      0.191731   2.00296e-15      0.166386        106893        103212        465973    3.6698e-15
     0.043043       290.036       288.715     0.0592502       23.1776      -1.47801             0        8.3506       0.06373             0       12.8376      0.315166             0      0.727909             0             0      0.191779   2.00064e-15      0.166177        106886        103212        466404   3.66554e-15
    0.0435435       290.046       288.715     0.0613271       22.9737      -1.38705             0       8.32474     0.0582902             0       12.5587      0.283701             0      0.634206             0             0       0.19178   2.00133e-15      0.166175        106880        103213        466838   3.66682e-15
     0.044044       290.056       288.716     0.0634364       22.7738      -1.29431             0       8.29834     0.0527557             0       12.2813      0.251779             0       0.54137             0             0      0.191768   2.00287e-15      0.166228        106874        103213        467269   3.66963e-15
    0.0445445       290.061       288.718     0.0658813       22.6143      -1.18319             0       8.26631     0.0462395             0       12.0201      0.215127             0      0.457509             0             0      0.191624    2.0131e-15      0.166852        106869        103213        467673   3.68837e-15
     0.045045       290.066       288.719     0.0683056       22.4601      -1.07069             0       8.23257     0.0396891             0       11.7558       0.17902             0      0.374682             0             0      0.191457     2.025e-15      0.167579        106863        103213        468072   3.71017e-15
    0.0455455       290.064        288.72     0.0705214       22.3593     -0.944376             0       8.18146     0.0327926             0       11.4607      0.148431             0      0.302317             0             0      0.191051   2.05378e-15      0.169343        106858        103213        468421   3.76291e-15