#           y             T         TMean   TPrime2Mean           U_x           U_y           U_z       UMean_x       UMean_y       UMean_z UPrime2Mea... UPrime2Mea... UPrime2Mea... UPrime2Mea... UPrime2Mea... UPrime2Mea...            O2           H2O          C3H8             p         pMean   pPrime2Mean           CO2
            0       290.214       288.314      0.241816       46.7282             0             0       15.9317             0             0       66.9291             0             0             0             0             0      0.229621   2.99429e-09    0.00164662        109105        103300        727525   5.48609e-09
  0.000500501        290.34       288.322      0.244737       46.7629    -0.0574428             0       15.9253     0.0154031             0       66.1772    -0.0564496             0      0.076288             0             0      0.229362   8.46083e-09    0.00277245        109104        103300        727502   1.55018e-08
     0.001001       290.467       288.329      0.247674       46.7978     -0.114884             0       15.9189     0.0308087             0       65.4245     -0.112862             0      0.152772             0             0      0.229102   1.40317e-08    0.00390443        109104        103300        727479   2.57087e-08
    0.0015015       291.096       288.345      0.259011       46.8878     -0.171275             0       15.9162     0.0474984             0       64.3257     -0.150823             0       0.32714             0             0      0.228136    7.1659e-08    0.00810606        109103        103300        727403   1.31293e-07
     0.002002        291.73       288.362       0.27049       46.9782     -0.227687             0       15.9137     0.0641831             0       63.2307     -0.188883             0      0.501973             0             0      0.227165   1.31016e-07     0.0123258        109102        103300        727327   2.40046e-07
    0.0025025       293.499       288.378      0.317567       47.1483     -0.289152             0         15.94     0.0796252             0       63.1072     -0.251359             0       0.79253             0             0      0.225157    6.2117e-07     0.0210519        109100        103300        727176    1.1381e-06
     0.003003       295.278       288.394      0.365287       47.3189     -0.350981             0       15.9666     0.0950399             0       62.9881      -0.31434             0       1.08389             0             0      0.223141   1.12464e-06     0.0298095        109098        103299        727025   2.06055e-06
    0.0035035       298.645       288.411      0.519519       47.5872     -0.472881             0        16.022      0.105908             0       63.6064     -0.460933             0       1.50818             0             0       0.21992   3.83448e-06     0.0437868        109096        103299        726783   7.02549e-06
     0.004004        302.01       288.428      0.674478       47.8558     -0.595509             0       16.0774      0.116739             0       64.2264     -0.608394             0       1.93358             0             0      0.216699   6.55835e-06     0.0577617        109094        103298        726540   1.20161e-05
    0.0045045       305.226       288.447      0.919579       48.1677     -0.808414             0       16.1373      0.122798             0       65.0588     -0.863512             0       2.49622             0             0      0.213542   1.10224e-05     0.0714419        109092        103297        726180    2.0195e-05
   0.00500501       308.419       288.466       1.16381       48.4786      -1.02158             0       16.1968      0.128847             0       65.8909       -1.1192             0       3.05993             0             0       0.21039   1.54541e-05     0.0850984        109090        103296        725818   2.83148e-05
   0.00550551       309.422       288.484        1.3219       48.6917      -1.26088             0       16.2265      0.133832             0       66.7071      -1.43086             0       3.72901             0             0      0.207783   1.66925e-05     0.0964221        109088        103296        725323   3.05838e-05
   0.00600601       310.397       288.501       1.47766       48.9009      -1.50099             0       16.2555      0.138856             0        67.519      -1.74201             0       4.39863             0             0      0.205167   1.78881e-05      0.107784        109086        103295        724826   3.27744e-05
   0.00650651       309.043       288.512       1.44247       48.7834        -1.808             0        16.223      0.147155             0       67.9749      -2.01005             0       5.11252             0             0      0.201838    1.5564e-05      0.122279        109085        103294        724176   2.85162e-05
   0.00700701       307.676       288.523       1.40558       48.6591      -2.11653             0       16.1895      0.155527             0       68.4205      -2.27661             0       5.82639             0             0      0.198498   1.32448e-05      0.136825        109084        103293        723524   2.42669e-05
   0.00750751       305.295       288.528       1.24856       48.0567      -2.53242             0       16.0838      0.169082             0       68.1399       -2.4396             0       6.53935             0             0      0.194318   1.12721e-05      0.155022        109082        103292        722727   2.06527e-05
   0.00800801       302.926       288.532       1.09203       47.4464      -2.94797             0       15.9773      0.182686             0       67.8493      -2.60149             0       7.25239             0             0      0.190139   9.31139e-06      0.173215        109080        103290        721927   1.70602e-05
   0.00850851       301.259       288.537       0.96607       46.3578      -3.34292             0       15.8187      0.199383             0       66.9477      -2.69635             0       7.97043             0             0      0.186009   8.08274e-06      0.191182        109079        103289        721026   1.48091e-05
   0.00900901       299.606       288.541      0.841007       45.2606      -3.73521             0       15.6596      0.216069             0       66.0425      -2.79139             0       8.68911             0             0      0.181904   6.85019e-06      0.209046        109077        103288        720125   1.25508e-05
   0.00950951       298.684       288.547      0.765075       43.6976      -3.98242             0        15.478      0.232184             0       64.9408       -2.8965             0        9.4424             0             0      0.179098   5.40513e-06      0.221259        109077        103287        719171    9.9032e-06
      0.01001       297.756       288.553      0.688684       42.1336      -4.22675             0       15.2962      0.248271             0       63.8378      -3.00211             0       10.1964             0             0      0.176323    3.9677e-06      0.233339        109077        103286        718217   7.26956e-06
    0.0105105       296.543       288.557      0.589788       40.5154      -4.32981             0       15.1058      0.262977             0       62.6733      -3.13243             0       10.9877             0             0      0.175044   2.90438e-06       0.23891        109079        103284        717249   5.32137e-06
     0.011011       295.327        288.56      0.491107        38.911      -4.43002             0       14.9151      0.277709             0       61.5036      -3.26198             0        11.779             0             0       0.17378   1.85779e-06      0.244417        109081        103283        716280   3.40382e-06
    0.0115115       293.917       288.561      0.401952       37.9151      -4.40359             0       14.7105      0.293601             0       60.0986      -3.35744             0       12.5745             0             0      0.173173    1.5546e-06      0.247058        109082        103282        715265   2.84832e-06
     0.012012       292.522       288.562      0.313928        36.938      -4.37545             0       14.5053      0.309541             0       58.6835      -3.45123             0       13.3695             0             0      0.172576   1.25542e-06      0.249656        109083        103280        714248   2.30016e-06
    0.0125125       291.691       288.564      0.271906       36.7282      -4.27755             0       14.2805       0.32746             0       56.8617      -3.47711             0        14.141             0             0      0.172376   1.11937e-06      0.250527        109082        103279        713173    2.0509e-06
     0.013013       290.873       288.566      0.230703       36.5286      -4.18028             0       14.0555      0.345372             0       55.0318      -3.50229             0       14.9117             0             0      0.172189   9.82759e-07       0.25134        109081        103278        712096    1.8006e-06
    0.0135135       290.558        288.57      0.220144       36.7121      -4.10675             0        13.821       0.36299             0       52.8988      -3.50117             0       15.6564             0             0      0.172505   8.24986e-07       0.24997        109080        103276        710974   1.51153e-06
     0.014014       290.248       288.575      0.209773       36.8956      -4.03523             0       13.5865      0.380586             0       50.7654      -3.50056             0       16.3992             0             0       0.17285   6.67528e-07      0.248472        109079        103275        709852   1.22304e-06
    0.0145145       290.139       288.581      0.205896        37.077      -4.03379             0       13.3503      0.397452             0       48.6184      -3.51777             0       17.0775             0             0      0.174212   5.21058e-07       0.24255        109078        103274        708729   9.54675e-07
     0.015015       290.032       288.586      0.202036       37.2532      -4.03371             0       13.1137       0.41441             0       46.4782      -3.53572             0        17.751             0             0      0.175596   3.75635e-07      0.236535        109077        103273        707607   6.88234e-07
    0.0155155       289.976       288.592       0.19875       37.2616      -4.07729             0       12.8651      0.434312             0       44.5574      -3.57798             0       18.2672             0             0      0.177669   2.64107e-07      0.227521        109076        103272        706518   4.83893e-07
     0.016016        289.92       288.597      0.195512       37.2646      -4.12125             0       12.6159      0.454355             0       42.6479      -3.62227             0       18.7768             0             0      0.179724   1.54285e-07      0.218586        109075        103271        705430   2.82679e-07
    0.0165165       289.879       288.602      0.193747       37.1012      -4.17684             0       12.3473      0.478662             0       41.0799      -3.72819             0       19.0856             0             0      0.181234   9.60859e-08      0.212025        109073        103270        704386   1.76047e-07
     0.017017       289.839       288.606      0.192058       36.9363      -4.23394             0       12.0784      0.502978             0       39.5251      -3.83888             0       19.3892             0             0      0.182719   3.93358e-08       0.20557        109070        103270        703344   7.20706e-08
    0.0175175       289.815       288.608      0.192488       36.7272      -4.33387             0       11.7995      0.527554             0        38.342      -4.08528             0       19.5446             0             0      0.183515   2.37524e-08      0.202106        109067        103269        702346   4.35189e-08
     0.018018       289.793       288.611      0.192998       36.5201      -4.43732             0       11.5206      0.552022             0       37.1712      -4.33715             0       19.6964             0             0        0.1843   8.60639e-09      0.198695        109063        103269        701350   1.57685e-08
    0.0185185       289.785       288.611       0.19564        36.367      -4.63493             0       11.2408      0.573565             0       36.3275      -4.73526             0       19.7503             0             0      0.184753   5.17076e-09      0.196725        109058        103268        700420    9.4738e-09
     0.019019       289.777       288.612      0.198347       36.2163      -4.83644             0       10.9611      0.595036             0       35.4933      -5.13572             0       19.8002             0             0      0.185199   1.83661e-09      0.194786        109052        103268        699493   3.36502e-09
    0.0195195       289.779       288.612      0.202688       36.1273      -5.13677             0       10.6829      0.614669             0       34.8977      -5.59588             0       19.7493             0             0      0.185458   1.07162e-09      0.193661        109045        103268        698658   1.96341e-09
      0.02002       289.781       288.611      0.207084        36.038      -5.43884             0       10.4047      0.634352             0       34.3096      -6.05298             0       19.6938             0             0      0.185713   3.31554e-10      0.192551        109038        103268        697826   6.07468e-10
    0.0205205       289.787       288.611      0.212798       35.9407      -5.78263             0       10.1286      0.655257             0       33.9011      -6.43679             0       19.5273             0             0      0.185884   1.89602e-10       0.19181        109029        103268        697087   3.47385e-10
     0.021021       289.793       288.612      0.218606       35.8422      -6.12716             0       9.85296      0.676421             0       33.4947      -6.81359             0       19.3553             0             0      0.186053   5.26696e-11      0.191074        109020        103268        696354   9.65005e-11
    0.0215215       289.801       288.613      0.226529       35.7159      -6.48848             0       9.58839      0.703501             0        33.134      -7.03058             0       19.0579             0             0        0.1862   3.02481e-11      0.190435        109010        103268        695736   5.54201e-11
     0.022022       289.809       288.614       0.23459       35.5879      -6.85012             0       9.32507      0.730643             0        32.765      -7.23635             0       18.7563             0             0      0.186347   8.65744e-12      0.189796        109001        103268        695126    1.5862e-11
    0.0225225       289.817       288.617      0.245617        35.423      -7.21869             0       9.08865      0.759115             0       32.2147      -7.19814             0       18.3633             0             0      0.186491   5.12033e-12      0.189167        108991        103268        694674   9.38141e-12
     0.023023       289.826        288.62      0.256653       35.2545      -7.58613             0        8.8534      0.787843             0       31.6613      -7.15211             0       17.9685             0             0      0.186635   1.71314e-12      0.188543        108981        103269        694232   3.13879e-12
    0.0235235       289.835       288.623      0.267857       35.0129      -7.93012             0       8.64231      0.821875             0       31.0431      -6.94379             0       17.5355             0             0      0.186752   1.00014e-12      0.188035        108971        103269        693995   1.83245e-12
     0.024024       289.845       288.625      0.278944       34.7664      -8.27192             0       8.43218      0.856207             0       30.4297      -6.73005             0       17.1018             0             0      0.186866   3.15257e-13       0.18754        108961        103269        693769    5.7761e-13
    0.0245245       289.853       288.627      0.287725       34.4259      -8.57025             0       8.24084      0.896478             0       29.9132      -6.40893             0       16.6526             0             0      0.186918   1.87818e-13      0.187311        108952        103270        693759   3.44117e-13
     0.025025       289.861        288.63      0.296434       34.0817      -8.86654             0       8.05028      0.936872             0       29.4081       -6.0825             0       16.2034             0             0      0.186968    6.5588e-14      0.187093        108943        103270        693761   1.20169e-13
    0.0255255       289.868       288.636      0.303785       33.6662      -9.12417             0       7.87456      0.979596             0       29.1192      -5.65521             0       15.7537             0             0      0.186973   4.23397e-14      0.187072        108935        103270        693980   7.75743e-14
     0.026026       289.874       288.642      0.311003       33.2486      -9.38031             0       7.69925       1.02278             0       28.8556      -5.23258             0       15.3064             0             0      0.186977   1.99831e-14      0.187057        108927        103270        694211   3.66128e-14
    0.0265265        289.88       288.648      0.315808       32.7925      -9.60906             0       7.53141       1.07438             0       29.0532      -4.89494             0       14.9009             0             0       0.18695   1.38812e-14      0.187172        108921        103270        694656    2.5433e-14
     0.027027       289.886       288.654      0.320335       32.3358       -9.8369             0       7.36464       1.12613             0       29.2678      -4.56573             0       14.5009             0             0      0.186923   8.00433e-15      0.187293        108914        103271        695112   1.46654e-14
    0.0275275       289.893       288.657      0.319989       31.8689      -10.0486             0       7.21671       1.18063             0        29.778       -4.3841             0       14.1975             0             0      0.186868   6.06913e-15      0.187531        108909        103271        695759   1.11198e-14
     0.028028         289.9        288.66      0.319312       31.4025      -10.2597             0       7.07123       1.23472             0       30.2754      -4.20554             0          13.9             0             0      0.186811   4.20029e-15      0.187776        108904        103271        696417   7.69571e-15
    0.0285285       289.907       288.658      0.313028        30.946      -10.4611             0       6.96687       1.28201             0       30.5576      -4.07899             0       13.7011             0             0      0.186732   3.45013e-15      0.188121        108900        103271        697238   6.32128e-15
     0.029029       289.915       288.656      0.306586       30.4913      -10.6622             0       6.86584       1.32851             0       30.8021      -3.94879             0       13.5067             0             0      0.186652   2.73173e-15       0.18847        108896        103271        698069   5.00504e-15
    0.0295295       289.922       288.651      0.297587       30.0657      -10.8589             0       6.81899       1.36202             0       30.4329      -3.75946             0       13.3857             0             0      0.186558   2.52924e-15      0.188879        108893        103271        699066   4.63403e-15
      0.03003       289.929       288.647      0.288585       29.6429      -11.0552             0       6.77528       1.39464             0       30.0199      -3.56581             0       13.2675             0             0      0.186464   2.33645e-15      0.189287        108891        103270        700073   4.28081e-15
    0.0305305       289.936       288.643      0.279532       29.2637      -11.2459             0       6.78063       1.41333             0       28.9197      -3.30454             0       13.1943             0             0      0.186376   2.29571e-15      0.189668        108891        103270        701224   4.20616e-15
     0.031031       289.942        288.64       0.27038       28.8884      -11.4356             0       6.78799       1.43123             0       27.7904      -3.04404             0        13.123             0             0       0.18629   2.25694e-15      0.190044        108891        103270        702381   4.13514e-15
    0.0315315       289.948       288.639      0.259723       28.5711      -11.6109             0       6.82564       1.43708             0       26.2212      -2.79512             0       13.0832             0             0      0.186218    2.2481e-15      0.190356        108894        103270        703623   4.11895e-15
     0.032032       289.955       288.638      0.248953       28.2584      -11.7842             0       6.86401       1.44234             0       24.6489      -2.55258             0       13.0446             0             0      0.186148   2.23963e-15       0.19066        108898        103269        704867   4.10343e-15
    0.0325325       289.962       288.639      0.236537       28.0135      -11.9286             0       6.91302        1.4391             0       23.0327      -2.40337             0       13.0256             0             0      0.186102   2.23656e-15       0.19086        108905        103269        706128   4.09779e-15
     0.033033       289.969        288.64      0.224181       27.7739      -12.0696             0       6.96219       1.43557             0       21.4329      -2.26261             0        13.007             0             0      0.186059   2.23332e-15      0.191048        108912        103269        707387   4.09187e-15
    0.0335335       289.976       288.641      0.212652       27.6094      -12.1648             0       7.01378       1.42785             0       20.0668      -2.24152             0       12.9952             0             0      0.186056   2.22791e-15       0.19106        108922        103269        708623   4.08195e-15
     0.034034       289.983       288.642      0.201291       27.4508      -12.2551             0       7.06576       1.41993             0       18.7188       -2.2281             0       12.9837             0             0      0.186055   2.22234e-15      0.191065        108933        103269        709856   4.07175e-15
    0.0345345        289.99       288.643      0.192226       27.3731      -12.2793             0       7.12318       1.40934             0       17.6188      -2.31973             0       12.9749             0             0      0.186079   2.21467e-15      0.190961        108944        103269        711047   4.05769e-15
     0.035035       289.996       288.643      0.183328       27.3016      -12.2971             0       7.18144       1.39861             0       16.5279      -2.41938             0       12.9654             0             0      0.186103   2.20697e-15      0.190855        108955        103269        712233   4.04358e-15
    0.0355355       290.002       288.643      0.176648        27.312      -12.2318             0       7.25108       1.38615             0       15.5578      -2.62548             0       12.9461             0             0      0.186132   2.19889e-15      0.190732        108965        103270        713348   4.02878e-15
     0.036036       290.007       288.644      0.170079       27.3285      -12.1589             0       7.32122       1.37355             0       14.6006      -2.84024             0       12.9219             0             0       0.18616   2.19065e-15      0.190607        108975        103270        714453   4.01368e-15
    0.0365365       290.011       288.644      0.164937        27.423      -11.9898             0       7.39788       1.35918             0       13.8089      -3.16669             0       12.8351             0             0      0.186196   2.18036e-15      0.190454        108983        103270        715442   3.99482e-15
     0.037037       290.015       288.644      0.159865       27.5229      -11.8126             0       7.47386       1.34441             0       13.0462      -3.49943             0       12.7391             0             0       0.18623   2.17004e-15      0.190303        108991        103270        716419   3.97592e-15
    0.0375375       290.018       288.645      0.155678       27.6896      -11.5344             0       7.54119       1.32472             0       12.6472      -3.91101             0       12.5287             0             0       0.18626   2.15941e-15      0.190176        108997        103271        717263   3.95644e-15
     0.038038       290.021       288.646      0.151532       27.8605       -11.248             0       7.60716       1.30459             0       12.2872      -4.32458             0       12.3079             0             0      0.186288   2.14893e-15      0.190054        109003        103271        718096   3.93725e-15
    0.0385385       290.023       288.647      0.147902       28.0818      -10.8627             0       7.65659       1.27909             0       12.4024      -4.76225             0       11.9587             0             0        0.1863   2.14036e-15      0.189999        109009        103272        718787   3.92153e-15
     0.039039       290.026       288.649      0.144276       28.3055      -10.4703             0       7.70422       1.25318             0       12.5647       -5.1969             0       11.5982             0             0      0.186313   2.13209e-15      0.189945        109014        103273        719467   3.90639e-15
    0.0395395       290.027        288.65      0.140701        28.557      -9.99348             0        7.7307       1.22247             0       13.2845      -5.59585             0       11.1049             0             0      0.186319   2.12753e-15      0.189918        109020        103274        720001   3.89803e-15
      0.04004       290.029       288.651      0.137118       28.8089      -9.51075             0       7.75467       1.19135             0       14.0605      -5.98569             0       10.6012             0             0      0.186326    2.1243e-15      0.189885        109026        103275        720524    3.8921e-15
    0.0405405       290.031       288.651       0.13344       29.0646      -8.96016             0       7.74988       1.15554             0       15.4828      -6.27068             0       9.97806             0             0      0.186347   2.13631e-15      0.189797        109034        103276        720920   3.91412e-15
     0.041041       290.033        288.65      0.129755       29.3185      -8.40549             0       7.74202        1.1193             0       16.9548      -6.54155             0       9.34695             0             0      0.186368   2.15183e-15      0.189703        109042        103278        721306   3.94255e-15
    0.0415415       290.035       288.647      0.125988       29.5526      -7.80526             0        7.6999       1.07828             0       18.9829      -6.65425             0       8.62641             0             0      0.186407   2.20659e-15      0.189536        109052        103279        721586   4.04288e-15
     0.042042       290.038       288.644      0.122292       29.7827      -7.20224             0       7.65452       1.03668             0       21.0348       -6.7521             0       7.90245             0             0      0.186444   2.27061e-15      0.189373        109063        103281        721860   4.16018e-15
    0.0425425       290.041        288.64      0.119364       29.9693      -6.56875             0       7.57359      0.988756             0       23.3467       -6.6879             0       7.14107             0             0      0.186473   2.43561e-15      0.189247        109076        103282        722065   4.46249e-15
     0.043043       290.044       288.636      0.116601       30.1496      -5.93436             0       7.48983      0.940224             0       25.6611      -6.61142             0       6.38213             0             0      0.186501   2.61285e-15      0.189128        109089        103283        722268   4.78723e-15
    0.0435435       290.049       288.631      0.115602       30.2627      -5.29045             0       7.37592      0.885188             0       28.0014      -6.40437             0       5.64923             0             0      0.186513    2.9202e-15      0.189076        109104        103285        722448   5.35036e-15
     0.044044       290.053       288.627      0.114787       30.3666      -4.64688             0       7.25941      0.829424             0       30.3395      -6.18936             0       4.92188             0             0      0.186524   3.23386e-15      0.189028        109120        103286        722629   5.92504e-15
    0.0445445       290.058       288.623      0.115884       30.3752      -4.00685             0         7.116       0.76611             0       32.6547      -5.89196             0       4.25218             0             0      0.186525   3.61288e-15      0.189024        109137        103288        722830   6.61948e-15
     0.045045       290.063       288.618      0.117174       30.3715      -3.37139             0        6.9696      0.701999             0       34.9652       -5.5884             0       3.58877             0             0      0.186525     3.977e-15      0.189022        109154        103289        723033   7.28661e-15
    0.0455455       290.068       288.615      0.120424       30.2419       -2.7821             0       6.79296       0.62982             0       37.2278      -5.22264             0       2.98901             0             0      0.186519   4.19041e-15       0.18905        109172        103290        723257   7.67761e-15