# vtk DataFile Version 2.0
sampleSurface
ASCII
DATASET POLYDATA
POINTS 16001 float
0 0 0.0005 0 0.001 0.0005 0.001 0 0.0005 -0.001 0
0.0005 0.001 0.001 0.0005 -0.001 0.001 0.0005 0.002 0 0.0005
0 0.002 0.0005 -0.002 0 0.0005 0.002 0.001 0.0005 0.001
0.002 0.0005 -0.002 0.001 0.0005 -0.001 0.002 0.0005 0.002 0.002
0.0005 -0.002 0.002 0.0005 0.003 0 0.0005 0 0.003 0.0005
-0.003 0 0.0005 0.003 0.001 0.0005 0.001 0.003 0.0005 -0.003
0.001 0.0005 -0.001 0.003 0.0005 0.003 0.002 0.0005 0.002 0.003
0.0005 -0.003 0.002 0.0005 -0.002 0.003 0.0005 0.004 0 0.0005
0 0.004 0.0005 -0.004 0 0.0005 0.004 0.001 0.0005 0.001
0.004 0.0005 -0.004 0.001 0.0005 -0.001 0.004 0.0005 0.003 0.003
0.0005 -0.003 0.003 0.0005 0.004 0.002 0.0005 0.002 0.004 0.0005
-0.004 0.002 0.0005 -0.002 0.004 0.0005 0.004 0.003 0.0005 0.003
0.004 0.0005 -0.004 0.003 0.0005 -0.003 0.004 0.0005 0.005 0
0.0005 0 0.005 0.0005 -0.005 0 0.0005 0.005 0.001 0.0005
0.001 0.005 0.0005 -0.005 0.001 0.0005 -0.001 0.005 0.0005 0.005
0.002 0.0005 0.002 0.005 0.0005 -0.005 0.002 0.0005 -0.002 0.005
0.0005 0.004 0.004 0.0005 -0.004 0.004 0.0005 0.005 0.003 0.0005
0.003 0.005 0.0005 -0.005 0.003 0.0005 -0.003 0.005 0.0005 0.006
0 0.0005 0 0.006 0.0005 -0.006 0 0.0005 0.006 0.001
0.0005 0.001 0.006 0.0005 -0.006 0.001 0.0005 -0.001 0.006 0.0005
0.006 0.002 0.0005 0.002 0.006 0.0005 -0.006 0.002 0.0005 -0.002
0.006 0.0005 0.005 0.004 0.0005 0.004 0.005 0.0005 -0.005 0.004
0.0005 -0.004 0.005 0.0005 0.006 0.003 0.0005 0.003 0.006 0.0005
-0.006 0.003 0.0005 -0.003 0.006 0.0005 0.007 0 0.0005 0
0.007 0.0005 -0.007 0 0.0005 0.007 0.001 0.0005 0.005 0.005
0.0005 0.001 0.007 0.0005 -0.007 0.001 0.0005 -0.005 0.005 0.0005
-0.001 0.007 0.0005 0.006 0.004 0.0005 0.004 0.006 0.0005 -0.006
0.004 0.0005 -0.004 0.006 0.0005 0.007 0.002 0.0005 0.002 0.007
0.0005 -0.007 0.002 0.0005 -0.002 0.007 0.0005 0.007 0.003 0.0005
0.003 0.007 0.0005 -0.007 0.003 0.0005 -0.003 0.007 0.0005 0.006
0.005 0.0005 0.005 0.006 0.0005 -0.006 0.005 0.0005 -0.005 0.006
0.0005 0.008 0 0.0005 0 0.008 0.0005 -0.008 0 0.0005
0.008 0.001 0.0005 0.001 0.008 0.0005 -0.008 0.001 0.0005 -0.001
0.008 0.0005 0.007 0.004 0.0005 0.004 0.007 0.0005 -0.007 0.004
0.0005 -0.004 0.007 0.0005 0.008 0.002 0.0005 0.002 0.008 0.0005
-0.008 0.002 0.0005 -0.002 0.008 0.0005 0.006 0.006 0.0005 -0.006
0.006 0.0005 0.008 0.003 0.0005 0.003 0.008 0.0005 -0.008 0.003
0.0005 -0.003 0.008 0.0005 0.007 0.005 0.0005 0.005 0.007 0.0005
-0.007 0.005 0.0005 -0.005 0.007 0.0005 0.008 0.004 0.0005 0.004
0.008 0.0005 -0.008 0.004 0.0005 -0.004 0.008 0.0005 0.009 0
0.0005 0 0.009 0.0005 -0.009 0 0.0005 0.009 0.001 0.0005
0.001 0.009 0.0005 -0.009 0.001 0.0005 -0.001 0.009 0.0005 0.009
0.002 0.0005 0.002 0.009 0.0005 -0.009 0.002 0.0005 -0.002 0.009
0.0005 0.007 0.006 0.0005 0.006 0.007 0.0005 -0.007 0.006 0.0005
-0.006 0.007 0.0005 0.008 0.005 0.0005 0.005 0.008 0.0005 -0.008
0.005 0.0005 -0.005 0.008 0.0005 0.009 0.003 0.0005 0.003 0.009
0.0005 -0.009 0.003 0.0005 -0.003 0.009 0.0005 0.009 0.004 0.0005
0.004 0.009 0.0005 -0.009 0.004 0.0005 -0.004 0.009 0.0005 0.007
0.007 0.0005 -0.007 0.007 0.0005 0.008 0.006 0.0005 0.006 0.008
0.0005 -0.008 0.006 0.0005 -0.006 0.008 0.0005 0.01 0 0.0005
0 0.01 0.0005 -0.01 0 0.0005 0.01 0.001 0.0005 0.001
0.01 0.0005 -0.01 0.001 0.0005 -0.001 0.01 0.0005 0.01 0.002
0.0005 0.002 0.01 0.0005 -0.01 0.002 0.0005 -0.002 0.01 0.0005
0.009 0.005 0.0005 0.005 0.009 0.0005 -0.009 0.005 0.0005 -0.005
0.009 0.0005 0.01 0.003 0.0005 0.003 0.01 0.0005 -0.01 0.003
0.0005 -0.003 0.01 0.0005 0.008 0.007 0.0005 0.007 0.008 0.0005
-0.008 0.007 0.0005 -0.007 0.008 0.0005 0.01 0.004 0.0005 0.004
0.01 0.0005 -0.01 0.004 0.0005 -0.004 0.01 0.0005 0.009 0.006
0.0005 0.006 0.009 0.0005 -0.009 0.006 0.0005 -0.006 0.009 0.0005
0.011 0 0.0005 0 0.011 0.0005 -0.011 0 0.0005 0.011
0.001 0.0005 0.001 0.011 0.0005 -0.011 0.001 0.0005 -0.001 0.011
0.0005 0.011 0.002 0.0005 0.002 0.011 0.0005 -0.011 0.002 0.0005
-0.002 0.011 0.0005 0.01 0.005 0.0005 0.005 0.01 0.0005 -0.01
0.005 0.0005 -0.005 0.01 0.0005 0.008 0.008 0.0005 -0.008 0.008
0.0005 0.011 0.003 0.0005 0.009 0.007 0.0005 0.007 0.009 0.0005
0.003 0.011 0.0005 -0.011 0.003 0.0005 -0.009 0.007 0.0005 -0.007
0.009 0.0005 -0.003 0.011 0.0005 0.01 0.006 0.0005 0.006 0.01
0.0005 -0.01 0.006 0.0005 -0.006 0.01 0.0005 0.011 0.004 0.0005
0.004 0.011 0.0005 -0.011 0.004 0.0005 -0.004 0.011 0.0005 0.012
0 0.0005 0 0.012 0.0005 -0.012 0 0.0005 0.012 0.001
0.0005 0.009 0.008 0.0005 0.008 0.009 0.0005 0.001 0.012 0.0005
-0.012 0.001 0.0005 -0.009 0.008 0.0005 -0.008 0.009 0.0005 -0.001
0.012 0.0005 0.011 0.005 0.0005 0.005 0.011 0.0005 -0.011 0.005
0.0005 -0.005 0.011 0.0005 0.012 0.002 0.0005 0.002 0.012 0.0005
-0.012 0.002 0.0005 -0.002 0.012 0.0005 0.01 0.007 0.0005 0.007
0.01 0.0005 -0.01 0.007 0.0005 -0.007 0.01 0.0005 0.012 0.003
0.0005 0.003 0.012 0.0005 -0.012 0.003 0.0005 -0.003 0.012 0.0005
0.011 0.006 0.0005 0.006 0.011 0.0005 -0.011 0.006 0.0005 -0.006
0.011 0.0005 0.012 0.004 0.0005 0.004 0.012 0.0005 -0.012 0.004
0.0005 -0.004 0.012 0.0005 0.009 0.009 0.0005 -0.009 0.009 0.0005
0.01 0.008 0.0005 0.008 0.01 0.0005 -0.01 0.008 0.0005 -0.008
0.01 0.0005 0.013 0 0.0005 0 0.013 0.0005 -0.013 0
0.0005 0.012 0.005 0.0005 0.005 0.012 0.0005 -0.012 0.005 0.0005
-0.005 0.012 0.0005 0.013 0.001 0.0005 0.011 0.007 0.0005 0.007
0.011 0.0005 0.001 0.013 0.0005 -0.013 0.001 0.0005 -0.011 0.007
0.0005 -0.007 0.011 0.0005 -0.001 0.013 0.0005 0.013 0.002 0.0005
0.002 0.013 0.0005 -0.013 0.002 0.0005 -0.002 0.013 0.0005 0.013
0.003 0.0005 0.003 0.013 0.0005 -0.013 0.003 0.0005 -0.003 0.013
0.0005 0.012 0.006 0.0005 0.006 0.012 0.0005 -0.012 0.006 0.0005
-0.006 0.012 0.0005 0.01 0.009 0.0005 0.009 0.01 0.0005 -0.01
0.009 0.0005 -0.009 0.01 0.0005 0.013 0.004 0.0005 0.011 0.008
0.0005 0.008 0.011 0.0005 0.004 0.013 0.0005 -0.013 0.004 0.0005
-0.011 0.008 0.0005 -0.008 0.011 0.0005 -0.004 0.013 0.0005 0.012
0.007 0.0005 0.007 0.012 0.0005 -0.012 0.007 0.0005 -0.007 0.012
0.0005 0.013 0.005 0.0005 0.005 0.013 0.0005 -0.013 0.005 0.0005
-0.005 0.013 0.0005 0.014 0 0.0005 0 0.014 0.0005 -0.014
0 0.0005 0.014 0.001 0.0005 0.001 0.014 0.0005 -0.014 0.001
0.0005 -0.001 0.014 0.0005 0.014 0.002 0.0005 0.01 0.01 0.0005
0.002 0.014 0.0005 -0.014 0.002 0.0005 -0.01 0.01 0.0005 -0.002
0.014 0.0005 0.011 0.009 0.0005 0.009 0.011 0.0005 -0.011 0.009
0.0005 -0.009 0.011 0.0005 0.013 0.006 0.0005 0.006 0.013 0.0005
-0.013 0.006 0.0005 -0.006 0.013 0.0005 0.014 0.003 0.0005 0.003
0.014 0.0005 -0.014 0.003 0.0005 -0.003 0.014 0.0005 0.012 0.008
0.0005 0.008 0.012 0.0005 -0.012 0.008 0.0005 -0.008 0.012 0.0005
0.014 0.004 0.0005 0.004 0.014 0.0005 -0.014 0.004 0.0005 -0.004
0.014 0.0005 0.013 0.007 0.0005 0.007 0.013 0.0005 -0.013 0.007
0.0005 -0.007 0.013 0.0005 0.011 0.01 0.0005 0.01 0.011 0.0005
-0.011 0.01 0.0005 -0.01 0.011 0.0005 0.014 0.005 0.0005 0.005
0.014 0.0005 -0.014 0.005 0.0005 -0.005 0.014 0.0005 0.015 0
0.0005 0.012 0.009 0.0005 0.009 0.012 0.0005 0 0.015 0.0005
-0.015 0 0.0005 -0.012 0.009 0.0005 -0.009 0.012 0.0005 0.015
0.001 0.0005 0.001 0.015 0.0005 -0.015 0.001 0.0005 -0.001 0.015
0.0005 0.015 0.002 0.0005 0.002 0.015 0.0005 -0.015 0.002 0.0005
-0.002 0.015 0.0005 0.014 0.006 0.0005 0.006 0.014 0.0005 -0.014
0.006 0.0005 -0.006 0.014 0.0005 0.013 0.008 0.0005 0.008 0.013
0.0005 -0.013 0.008 0.0005 -0.008 0.013 0.0005 0.015 0.003 0.0005
0.003 0.015 0.0005 -0.015 0.003 0.0005 -0.003 0.015 0.0005 0.015
0.004 0.0005 0.004 0.015 0.0005 -0.015 0.004 0.0005 -0.004 0.015
0.0005 0.011 0.011 0.0005 -0.011 0.011 0.0005 0.012 0.01 0.0005
0.01 0.012 0.0005 -0.012 0.01 0.0005 -0.01 0.012 0.0005 0.014
0.007 0.0005 0.007 0.014 0.0005 -0.014 0.007 0.0005 -0.007 0.014
0.0005 0.015 0.005 0.0005 0.013 0.009 0.0005 0.009 0.013 0.0005
0.005 0.015 0.0005 -0.015 0.005 0.0005 -0.013 0.009 0.0005 -0.009
0.013 0.0005 -0.005 0.015 0.0005 0.016 0 0.0005 0 0.016
0.0005 -0.016 0 0.0005 0.016 0.001 0.0005 0.001 0.016 0.0005
-0.016 0.001 0.0005 -0.001 0.016 0.0005 0.016 0.002 0.0005 0.002
0.016 0.0005 -0.016 0.002 0.0005 -0.002 0.016 0.0005 0.014 0.008
0.0005 0.008 0.014 0.0005 -0.014 0.008 0.0005 -0.008 0.014 0.0005
0.015 0.006 0.0005 0.006 0.015 0.0005 -0.015 0.006 0.0005 -0.006
0.015 0.0005 0.016 0.003 0.0005 0.012 0.011 0.0005 0.011 0.012
0.0005 0.003 0.016 0.0005 -0.016 0.003 0.0005 -0.012 0.011 0.0005
-0.011 0.012 0.0005 -0.003 0.016 0.0005 0.013 0.01 0.0005 0.01
0.013 0.0005 -0.013 0.01 0.0005 -0.01 0.013 0.0005 0.016 0.004
0.0005 0.004 0.016 0.0005 -0.016 0.004 0.0005 -0.004 0.016 0.0005
0.015 0.007 0.0005 0.007 0.015 0.0005 -0.015 0.007 0.0005 -0.007
0.015 0.0005 0.014 0.009 0.0005 0.009 0.014 0.0005 -0.014 0.009
0.0005 -0.009 0.014 0.0005 0.016 0.005 0.0005 0.005 0.016 0.0005
-0.016 0.005 0.0005 -0.005 0.016 0.0005 0.012 0.012 0.0005 -0.012
0.012 0.0005 0.015 0.008 0.0005 0.008 0.015 0.0005 -0.015 0.008
0.0005 -0.008 0.015 0.0005 0.017 0 0.0005 0 0.017 0.0005
-0.017 0 0.0005 0.013 0.011 0.0005 0.011 0.013 0.0005 -0.013
0.011 0.0005 -0.011 0.013 0.0005 0.017 0.001 0.0005 0.001 0.017
0.0005 -0.017 0.001 0.0005 -0.001 0.017 0.0005 0.016 0.006 0.0005
0.006 0.016 0.0005 -0.016 0.006 0.0005 -0.006 0.016 0.0005 0.017
0.002 0.0005 0.002 0.017 0.0005 -0.017 0.002 0.0005 -0.002 0.017
0.0005 0.014 0.01 0.0005 0.01 0.014 0.0005 -0.014 0.01 0.0005
-0.01 0.014 0.0005 0.017 0.003 0.0005 0.003 0.017 0.0005 -0.017
0.003 0.0005 -0.003 0.017 0.0005 0.016 0.007 0.0005 0.007 0.016
0.0005 -0.016 0.007 0.0005 -0.007 0.016 0.0005 0.017 0.004 0.0005
0.004 0.017 0.0005 -0.017 0.004 0.0005 -0.004 0.017 0.0005 0.015
0.009 0.0005 0.009 0.015 0.0005 -0.015 0.009 0.0005 -0.009 0.015
0.0005 0.013 0.012 0.0005 0.012 0.013 0.0005 -0.012 0.013 0.0005
-0.013 0.012 0.0005 0.017 0.005 0.0005 0.005 0.017 0.0005 -0.017
0.005 0.0005 -0.005 0.017 0.0005 0.014 0.011 0.0005 0.011 0.014
0.0005 -0.014 0.011 0.0005 -0.011 0.014 0.0005 0.016 0.008 0.0005
0.008 0.016 0.0005 -0.016 0.008 0.0005 -0.008 0.016 0.0005 0.018
[...]
POINT_DATA 16001
FIELD attributes 17
p 1 16001 float
111569 111559 111593 111530 111589 111517 111619 111533 111464 111622 111578
111453 111486 111627 111428 111663 111503 111379 111670 111564 111373
111450 111686 111632 111359 111399 111723 111481 111292 111729 111554
111290 111425 111700 111345 111744 111633 111286 111382 111756 111704
111286 111341 111787 111477 111220 111790 111552 111221 111422 111796
111628 111223 111386 111754 111296 111796 111692 111230 111356 111839
111495 111170 111837 111561 111171 111445 111834 111621 111175 111413
111783 111732 111245 111318 111821 111667 111182 111387 111877 111532
111133 111872 111748 111586 111134 111267 111486 111797 111691 111194
111350 111860 111621 111138 111455 111837 111638 111143 111428 111752
111694 111208 111293 111903 111586 111093 111896 111624 111095 111540
111805 111641 111149 111385 111876 111622 111099 111502 111696 111223
111845 111606 111105 111468 111760 111629 111153 111319 111811 111592
111107 111417 111924 111640 111030 111914 111664 111034 111593 111886
111625 111043 111545 111711 111630 111154 111236 111773 111574 111105
111342 111849 111580 111054 111501 111817 111561 111062 111441 111654
111153 111738 111582 111097 111247 111939 111718 110930 111924 111722
110937 111640 111889 111597 110956 111578 111790 111534 111063 111358
111846 111519 110979 111523 111693 111612 111085 111151 111816 111519
111001 111455 111768 111541 111054 111256 111945 111520 110793 111927
111616 110804 111663 111885 111506 110832 111595 111797 111507 111014
111368 111650 111073 111836 111730 111567 111406 110872 111039 111152
111532 111784 111515 111016 111262 111807 111457 110912 111460 111935
111719 110633 111914 111683 111603 111642 110646 111020 111063 112263
111791 111503 110945 111371 111867 111583 110683 112566 111754 111532
111006 111153 111816 111453 110736 112793 111787 111540 110966 111265
111790 111487 110794 112966 111647 111003 111731 111571 110989 111058
111909 112030 110473 111779 111537 110848 113100 111887 111769 111553
111882 110487 110971 111154 112320 111840 111763 110527 112586 111793
111615 110587 112809 111788 111576 110890 113246 111731 111629 110969
110991 111778 111767 111574 111595 110656 110964 111056 112977 111776
111576 110916 113446 111778 111599 110725 113111 111867 112106 110345
111847 111939 110357 112354 111807 111730 111812 110394 110954 112601
111766 111626 110950 110987 111792 111611 110785 113255 111773 111706
110450 112827 111802 111580 110927 113704 111771 111670 110518 112998
111770 111595 110832 113454 111757 111712 110938 110948 111780 111636
110590 113135 111819 111762 111625 112042 110270 110927 113989 111804
111866 110279 112313 111777 111774 110305 112589 111777 111630 110660
113277 111794 111590 110864 113708 111762 111717 110348 112834 111768
111691 110402 113017 111741 110932 111719 111694 110924 114248 111742
111608 110720 113472 111784 111752 111618 111645 110464 110883 113990
113161 111776 111969 110254 111766 111770 110258 112272 111750 111703
110271 112570 111703 111589 110769 113719 111771 111624 110529 113303
111747 111735 111709 111685 110293 110922 114457 112835 111691 111673
110891 114247 111757 111678 110324 113031 111749 111598 110592 113494
111678 111597 110804 113993 111774 111632 110365 113182 111705 114610
111710 111578 110648 113733 111742 111678 110281 111703 111698 110894
114456 111733 111508 110280 112248 111779 111601 110413 113325 111721
111508 110279 112558 111669 111633 110825 114245 111719 111562 110279
112832 111792 111576 110465 113513 111723 111604 110285 113036 111682
111581 110692 113998 111687 111710 114611 114737 111743 111581 110300
113189 111677 111679 110832 114452 111757 111562 110515 113745 111717
111232 110319 111706 111698 111616 111285 110314 110720 111232 114242
111747 111559 110323 113333 111689 111330 110302 111204 111677 111462
110287 111136 111701 111562 110557 114002 111708 114739 111784 111537
110354 113520 111675 111545 110272 111045 111686 111708 114849 114610
111713 111670 110729 114448 111681 111545 110262 110939 111730 111521
110388 113749 111700 111602 110585 114239 111680 111526 110261 110862
111693 111246 110332 111678 111270 110326 111219 111652 111708 111718
111318 110310 111190 114851 114742 111726 111718 114954 114609 111631
111662 111519 111427 110287 110419 111123 114003 111669 111505 110268
110831 111710 111664 110595 114444 111629 111480 110262 111031 111634
111478 110238 110926 111634 111488 110282 110850 111690 111560 110441
114239 111725 114855 111740 111744 114953 114746 111653 111461 110220
110852 111722 111721 115042 114608 111673 111232 110298 111653 111272
110294 111209 111620 111327 110280 111170 111637 111481 110297 110894
111595 111389 110260 111095 111629 111696 111642 111447 110209 110448
110825 114442 111603 111416 110236 110996 111747 111759 114952 114859
111663 111511 110309 110934 111605 111740 111754 111438 110204 110849
115039 114748 111624 111412 110211 110893 111709 111717 115119 114607
111658 111396 110188 110826 111660 111237 110219 111630 111444 110205
110897 111633 111276 110217 111201 111672 111594 110313 110950 111589
111320 110211 111147 111668 111384 110169 110810 111772 114951 111558
111369 110202 111058 111749 111769 115029 114863 111576 111390 110190
110948 111720 111757 115112 114749 111635 111476 110207 110938 111632
111384 110155 110846 111605 111386 110174 110845 111685 111683 110944
115191 111660 111366 110158 110787 111619 111768 111776 111415 110146
110902 115017 114950 111647 111540 110207 110954 111664 111246 110112
111630 111280 110114 111204 111726 111759 115092 114864 111571 111317
110118 111133 111659 111350 110142 110787 111529 111687 111734 111353
110123 110938 111026 115182 111546 111371 110127 110901 111620 111467
110142 110948 111604 111659 111611 111354 110128 110946 110838 115273
111565 111369 110128 110795 111769 115007 111738 111754 115068 114950
111601 111693 111744 111355 110126 110955 110744 115156 111630 111518
110140 110964 111601 111397 110118 110908 111679 111269 110011 111639
111663 111677 111294 110016 110938 111222 115264 111563 111596 111345
111316 110029 110121 110760 111135 111508 111340 110046 111006 111598
111457 110112 110962 111641 111567 110954 115367 111509 111357 110065
110865 111748 111747 115050 115004 111572 111349 110115 110828 111682
111744 111003 115125 111534 111363 110083 110752 111666 111716 110953
115238 111612 111505 110109 110979 111509 111591 111389 111363 110096
110109 110912 110705 111648 111634 110940 115360 111698 111287 109945
111655 111305 109952 111237 111495 111363 110104 110733 111742 115043
111569 111707 111749 111311 109968 111067 111140 115100 111589 111444
110105 110975 111504 111627 111546 111319 109993 110965 110997 115464
111662 111738 110999 115207 111492 111330 110021 110842 111545 111370
110108 110816 111653 111695 110947 115341 111530 111343 110048 110724
111606 111492 110103 110996 111572 111400 110110 110914 111638 111604
110943 115462 111515 111358 110070 110679 111731 111745 111119 115090
111672 111752 111062 115182 111505 111659 111727 111376 110087 110986
110714 115318 111705 111310 109923 111664 111325 109930 111249 111620
111531 110979 115552 111581 111441 110110 110987 111577 111313 109947
111147 111505 111303 109973 110996 111645 111662 110940 115455 111552
111393 110098 110806 111485 111302 110003 110836 111738 111131 111601
111695 111722 111481 110109 111113 111012 115172 111506 111315 110032
110715 111636 111579 110948 115554 111660 111736 111044 115299 111565
111419 110106 110914 111524 111339 110057 110670 111651 111697 110968
115445 111616 111513 110993 115616 111529 111372 110076 110707 111694
111385 111582 111449 110109 110994 111658 111372 111578 111647 111627
111339 110933 115559 111506 111717 111747 111302 111126 111094 111673
111689 111094 115291 111547 111403 110090 110802 111477 111280 111601
111661 111717 111481 110109 111018 111023 115437 111633 111546 110954
115622 111488 111283 111561 111432 110099 110913 111659 111667 110949
115564 111502 111308 111616 111506 111003 115654 111759 111092 111698
111738 111020 111111 111512 111646 111582 111348 110928 115638 111578
111459 110103 110996 111667 111418 111640 111402 111676 111707 111067
115433 111574 111358 111508 111305 111532 111668 111694 111389 110990
115569 111479 111266 111629 111530 110960 115663 111595 111486 110103
111026 111485 111660 111620 111255 110932 115657 111547 111424 111722
111795 111021 111083 111500 111274 111699 111745 110932 111088 111606
111506 111006 115665 111641 111552 110925 115685 111681 111713 111036
115570 111563 111452 111506 111315 111629 111412 111670 111651 110965
115673 111612 111397 111567 111358 111519 111361 111513 111309 111617
111526 110961 115675 111575 111476 111488 111748 111269 111020 111652
111583 110921 115713 111724 111786 110936 111070 111700 111736 110857
111062 111489 111252 111532 111400 111682 111672 111008 115679 111582
111492 111498 111262 111628 111545 110924 115700 111546 111428 111660
111612 110947 115736 111500 111293 111588 111740 111762 111385 110941
111017 111581 111374 111594 111718 111755 111511 110862 111054 111555
111350 111503 111331 111559 111446 111516 111636 111572 111321 110916
115730 111695 111688 110806 111038 111500 111293 111511 111669 111630
111364 110988 115744 111491 111279 111605 111537 111569 111458 111490
111281 111640 111593 110940 115755 111754 110949 111730 111752 110872
111015 111522 111383 111707 111700 110812 111039 111495 111296 111576
111477 111556 111678 111633 111338 110791 111021 111611 111573 111554
111336 111541 111332 111490 111539 111392 111316 111514 111327 111646
111611 110980 115763 111502 111321 111492 111331 111481 111578 111511
111319 111740 111745 110887 110958 111552 111397 111715 111703 110825
111012 111613 111604 111476 111318 111685 111644 110797 111029 111497
111334 111485 111321 111650 111615 110794 111014 111554 111416 111581
111561 111540 111311 111540 111314 111507 111331 111477 111320 111530
111618 111633 111324 111725 110904 111513 111716 111699 111338 110843
110966 111683 111661 110809 111009 111500 111349 111552 111456 111476
111314 111516 111584 111609 111330 111472 111356 111655 111637 110800
111024 111470 111357 111477 111620 111646 111299 111555 111519 111480
111522 111349 111351 111697 111684 110865 110920 111678 111669 110828
110972 111588 111654 111483 111282 111534 111317 111534 111469 111335
111322 111650 111667 110812 111007 111521 111335 111508 111353 111621
111679 111526 111393 111500 111369 111559 111581 111466 111311 111493
111275 111474 111377 111589 111682 111665 110885 111471 111656 111662
111374 110850 110931 111465 111280 111533 111637 111686 111460 110830
110972 111502 111292 111476 111359 111562 111639 111612 111715 111469
111252 111465 111332 111542 111364 111587 111727 111539 111367 111521
111376 111511 111338 111538 111529 111506 111387 111461 111478 111239
111296 111498 111637 111655 111393 110871 110900 111561 111679 111624
111686 110851 110934 111478 111388 111588 111742 111460 111256 111520
111407 111473 111369 111569 111763 111488 111256 111541 111592 111474
111339 111463 111222 111561 111729 111642 110886 111467 111298 111617
111676 110871 110903 111525 111479 111553 111436 111548 111499 111303
111437 111567 111741 111525 111439 111508 111540 111635 111436 111471
111207 111464 111532 111792 111251 111497 111423 111486 111396 111550
111766 111508 111375 111530 111541 111464 111204 111484 111352 111481
111225 111632 111661 110886 110889 111540 111681 111551 111716 111477
111296 111466 111169 111516 111792 111515 111449 111491 111276 111472
111234 111531 111582 111563 111533 111799 111519 111558 111518 111535
111513 111472 111154 111520 111497 111470 111173 111507 111535 111718
111465 111501 111354 111520 111512 111509 111637 111412 110889 111559
111693 111471 111121 111481 111516 111759 111175 111529 111616 111506
111340 111529 111805 111485 111255 111474 111085 111509 111432 111536
111755 111521 111547 111491 111232 111482 111168 111565 111585 111560
111583 111541 111526 111642 111574 111480 111072 111578 111650 111530
111550 111523 111729 111480 111091 111519 111505 111516 111534 111773
111498 111499 111318 111534 111434 111521 111566 111533 111768 111481
111488 111096 111031 111524 111340 111528 111678 111490 111233 111507
111404 111484 110993 111519 111530 111612 111495 111156 111536 111703
111490 111126 111549 111754 111522 111573 111561 111614 111491 110978
111557 111613 111528 111757 111541 111605 111488 111034 111532 111581
111516 111475 111503 111246 111535 111702 111515 111532 111523 111535
111527 111455 111501 110998 111491 110965 111529 111597 111514 111352
111586 111675 111545 111749 111511 111338 111521 111507 111494 110920
111540 111753 111487 111236 111510 111054 111529 111521 111543 111727
111499 111120 111500 110895 111550 111586 111545 111538 111624 111586
111520 111415 111534 111584 111497 111021 111514 111530 111505 111142
111514 111569 111651 111495 111573 111720 111531 111503 110902 111539
111531 111552 111765 111504 110944 111469 111463 111561 111745 111460
111528 111449 111368 111520 111231 111540 111479 111506 110886 111550
111666 111513 110942 111486 111258 111552 111555 111499 111147 111512
110842 111619 111669 111525 111309 111540 111577 111731 111451 111524
111015 111544 111498 111538 111503 111506 111053 111536 111576 111762
111512 111521 111515 111551 111477 111511 111572 111711 111499 111512
110824 111513 110974 111482 111455 111535 111350 111530 111094 111567
111619 111553 111425 111478 111384 111519 110837 111517 110904 111617
111507 111597 111673 111297 111564 111500 111596 111743 111537 111169
111510 111206 111550 111589 111749 111367 111523 110835 111534 110887
111566 111427 111587 111698 111542 111366 111540 111376 111520 111127
111546 111401 111546 111428 111530 110785 111535 111441 111580 111575
111548 111221 111524 111054 111543 110949 111527 111566 111600 111622
111361 111431 111615 111696 111525 111396 111606 111765 111539 111577
111466 110765 111527 110976 111528 111605 111763 111343 111563 111267
111553 111022 111530 111283 111533 110885 111598 111676 111577 111384
111548 110785 111537 111225 111542 111228 111542 111598 111243 111619
111609 111590 111559 111558 111283 111618 111721 111561 111541 110805
111335 111564 111090 111578 111300 111547 111379 111560 111622 111779
110829 111540 111164 111534 111405 111585 111435 111618 111776 111551
110750 111532 111407 111542 111085 111577 111172 111537 111390 111607
111642 111569 110902 111587 111355 111620 111571 111547 110979 111621
111575 111540 111360 111563 110740 111633 111722 111594 111538 111547
111326 111549 111118 111553 111635 111779 111137 111578 110991 111575
111189 111588 111251 111554 110873 111583 111260 111573 110764 111592
111421 111567 111329 111549 111626 111759 111278 111552 111384 111563
110789 111608 111549 111418 111608 111611 111620 111530 111553 111202
111589 111111 111636 111540 111594 111341 111583 110839 111547 111431
111643 111616 111595 111503 111576 110751 111556 111088 111547 111426
111642 111665 111598 111231 111593 110947 111552 111408 111560 111061
111565 111081 111564 110967 111624 111677 111594 111427 111588 111138
111588 110761 111595 111218 111605 111590 111553 111369 111577 111301
111632 111483 111603 111557 111643 111456 111559 111375 111574 110864
111602 111099 111552 111431 111601 111648 111444 111341 111558 111298
111596 110838 111548 111591 111497 111464 111637 111514 111584 110811
111562 111186 111546 111474 111608 111614 111577 111243 111588 111604
111621 111568 110962 111596 111421 111551 111462 111636 111471 111567
111063 111577 111048 111583 111067 111596 110815 111604 111122 111647
111439 111609 111592 111513 111202 111556 111426 111587 111291 111642
111394 111576 110957 111567 111376 111615 111129 111607 111349 111564
111359 111607 110897 111559 111626 111459 111444 111586 111468 111549
111609 111572 111489 111589 111625 111543 110904 111567 111256 111598
111520 111640 111488 111547 111507 111619 111272 111598 111404 111616
111025 111641 111484 111551 111495 111568 111144 111601 111579 111479
110911 111596 111632 111417 111052 111600 111069 111614 111120 111615
111197 111555 111456 111585 111287 111616 111356 111626 111183 111573
111608 111438 111048 111600 111567 111584 111435 111379 111614 111558
111614 110994 111630 111530 111560 111392 111560 111457 111635 111488
111579 111476 111545 111586 111005 111511 111560 111631 111494 111300
111628 111303 111604 111384 111624 111112 111542 111534 111570 111458
111620 111428 111562 111604 111019 111204 111544 111523 111608 111589
111618 111039 111618 111623 111548 111055 111620 111587 111426 111104
111623 111360 111610 111547 111481 111181 111633 111629 111525 111243
111584 111412 111577 111568 111125 111276 111631 111495 111616 111098
111559 111377 111548 111418 111564 111457 111554 111467 111627 111507
111578 111096 111634 111331 111539 111532 111610 111376 111551 111338
111625 111198 111603 111446 111564 111463 111601 111534 111563 111618
111576 111621 111536 111592 111115 111557 111258 111631 111526 111534
111557 111567 111432 111627 111368 111637 110992 111632 111633 111508
111300 111632 111586 111414 111008 111621 111060 111536 111517 111600
111144 111561 111193 111571 111607 111190 111252 111551 111470 111623
111512 111554 111368 111539 111458 111545 111475 111614 111593 111613
111389 111633 111362 111618 111564 111567 111580 111461 111174 111626
111533 111562 111483 111531 111554 111543 111617 111276 111387 111636
111536 111525 111596 111547 111454 111577 111197 111547 111317 111635
111517 111522 111628 111393 111599 111590 111434 111623 111358 111651
110920 111640 111601 111512 110940 111544 111491 111617 110999 111521
111567 111547 111260 111611 111585 111095 111593 111619 111585 111267
111545 111621 111556 111219 111530 111555 111481 111354 111634 111535
111521 111515 111615 111422 111624 111408 111531 111565 111492 111480
111549 111243 111638 111539 111604 111345 111522 111520 111448 111576
111535 111479 111620 111522 111514 111630 111559 111265 111623 111440
111520 111596 111465 111380 111619 111609 111572 111516 111509 111621
111577 111643 111612 111419 111544 111503 111627 111552 111660 110856
111646 110878 111507 111620 111522 111574 111638 111535 111331 111324
111609 110944 111565 111537 111501 111052 111521 111191 111615 111471
111633 111538 111572 111510 111505 111617 111466 111573 111507 111342
111529 111303 111515 111483 111589 111405 111532 111505 111593 111526
111504 111508 111511 111622 111593 111621 111605 111621 111569 111600
111515 111505 111540 111551 111523 111319 111658 111618 111498 111635
111546 111502 111440 111551 111522 111600 111478 111642 111532 111499
111678 111529 111523 111555 111380 111503 111615 111538 111379 111664
110829 111495 111660 111646 110852 111599 110922 111614 111531 111545
111035 111580 111550 111607 111528 111509 111179 111626 111624 111492
111571 111531 111615 111536 111529 111620 111598 111501 111337 111510
111352 111571 111630 111560 111452 111503 111484 111645 111538 111490
111550 111536 111538 111500 111600 111603 111572 111611 111569 111523
111359 111560 111633 111531 111559 111497 111669 111490 111586 111529
111480 111528 111542 111593 111539 111492 111692 111631 111539 111413
111623 111622 111491 111415 111611 111627 111589 111614 111487 111675
111661 111588 111603 111642 111589 111551 111545 111596 111588 111533
111645 111546 111544 111565 111501 111481 111630 111645 111530 111495
111498 111380 111555 111487 111529 111555 111495 111614 111527 111478
111564 111605 111662 111492 111604 111571 111614 111644 111510 111379
111569 111547 111493 111571 111533 111632 111636 111574 111579 111478
111625 111617 111492 111644 111574 111488 111655 111535 111536 111559
111527 111429 111593 111693 111608 111702 111481 111425 111484 111555
111613 111641 111586 111659 111623 111632 111520 111572 111521 111499
111528 111585 111479 111589 111530 111491 111544 111509 111387 111491
111636 111606 111754 111484 111635 111639 111579 111698 111475 111598