# vtk DataFile Version 2.0
sampleSurface
ASCII
DATASET POLYDATA
POINTS 16001 float
0 0 0.0005 0 0.001 0.0005 0.001 0 0.0005 -0.001 0
0.0005 0.001 0.001 0.0005 -0.001 0.001 0.0005 0.002 0 0.0005
0 0.002 0.0005 -0.002 0 0.0005 0.002 0.001 0.0005 0.001
0.002 0.0005 -0.002 0.001 0.0005 -0.001 0.002 0.0005 0.002 0.002
0.0005 -0.002 0.002 0.0005 0.003 0 0.0005 0 0.003 0.0005
-0.003 0 0.0005 0.003 0.001 0.0005 0.001 0.003 0.0005 -0.003
0.001 0.0005 -0.001 0.003 0.0005 0.003 0.002 0.0005 0.002 0.003
0.0005 -0.003 0.002 0.0005 -0.002 0.003 0.0005 0.004 0 0.0005
0 0.004 0.0005 -0.004 0 0.0005 0.004 0.001 0.0005 0.001
0.004 0.0005 -0.004 0.001 0.0005 -0.001 0.004 0.0005 0.003 0.003
0.0005 -0.003 0.003 0.0005 0.004 0.002 0.0005 0.002 0.004 0.0005
-0.004 0.002 0.0005 -0.002 0.004 0.0005 0.004 0.003 0.0005 0.003
0.004 0.0005 -0.004 0.003 0.0005 -0.003 0.004 0.0005 0.005 0
0.0005 0 0.005 0.0005 -0.005 0 0.0005 0.005 0.001 0.0005
0.001 0.005 0.0005 -0.005 0.001 0.0005 -0.001 0.005 0.0005 0.005
0.002 0.0005 0.002 0.005 0.0005 -0.005 0.002 0.0005 -0.002 0.005
0.0005 0.004 0.004 0.0005 -0.004 0.004 0.0005 0.005 0.003 0.0005
0.003 0.005 0.0005 -0.005 0.003 0.0005 -0.003 0.005 0.0005 0.006
0 0.0005 0 0.006 0.0005 -0.006 0 0.0005 0.006 0.001
0.0005 0.001 0.006 0.0005 -0.006 0.001 0.0005 -0.001 0.006 0.0005
0.006 0.002 0.0005 0.002 0.006 0.0005 -0.006 0.002 0.0005 -0.002
0.006 0.0005 0.005 0.004 0.0005 0.004 0.005 0.0005 -0.005 0.004
0.0005 -0.004 0.005 0.0005 0.006 0.003 0.0005 0.003 0.006 0.0005
-0.006 0.003 0.0005 -0.003 0.006 0.0005 0.007 0 0.0005 0
0.007 0.0005 -0.007 0 0.0005 0.007 0.001 0.0005 0.005 0.005
0.0005 0.001 0.007 0.0005 -0.007 0.001 0.0005 -0.005 0.005 0.0005
-0.001 0.007 0.0005 0.006 0.004 0.0005 0.004 0.006 0.0005 -0.006
0.004 0.0005 -0.004 0.006 0.0005 0.007 0.002 0.0005 0.002 0.007
0.0005 -0.007 0.002 0.0005 -0.002 0.007 0.0005 0.007 0.003 0.0005
0.003 0.007 0.0005 -0.007 0.003 0.0005 -0.003 0.007 0.0005 0.006
0.005 0.0005 0.005 0.006 0.0005 -0.006 0.005 0.0005 -0.005 0.006
0.0005 0.008 0 0.0005 0 0.008 0.0005 -0.008 0 0.0005
0.008 0.001 0.0005 0.001 0.008 0.0005 -0.008 0.001 0.0005 -0.001
0.008 0.0005 0.007 0.004 0.0005 0.004 0.007 0.0005 -0.007 0.004
0.0005 -0.004 0.007 0.0005 0.008 0.002 0.0005 0.002 0.008 0.0005
-0.008 0.002 0.0005 -0.002 0.008 0.0005 0.006 0.006 0.0005 -0.006
0.006 0.0005 0.008 0.003 0.0005 0.003 0.008 0.0005 -0.008 0.003
0.0005 -0.003 0.008 0.0005 0.007 0.005 0.0005 0.005 0.007 0.0005
-0.007 0.005 0.0005 -0.005 0.007 0.0005 0.008 0.004 0.0005 0.004
0.008 0.0005 -0.008 0.004 0.0005 -0.004 0.008 0.0005 0.009 0
0.0005 0 0.009 0.0005 -0.009 0 0.0005 0.009 0.001 0.0005
0.001 0.009 0.0005 -0.009 0.001 0.0005 -0.001 0.009 0.0005 0.009
0.002 0.0005 0.002 0.009 0.0005 -0.009 0.002 0.0005 -0.002 0.009
0.0005 0.007 0.006 0.0005 0.006 0.007 0.0005 -0.007 0.006 0.0005
-0.006 0.007 0.0005 0.008 0.005 0.0005 0.005 0.008 0.0005 -0.008
0.005 0.0005 -0.005 0.008 0.0005 0.009 0.003 0.0005 0.003 0.009
0.0005 -0.009 0.003 0.0005 -0.003 0.009 0.0005 0.009 0.004 0.0005
0.004 0.009 0.0005 -0.009 0.004 0.0005 -0.004 0.009 0.0005 0.007
0.007 0.0005 -0.007 0.007 0.0005 0.008 0.006 0.0005 0.006 0.008
0.0005 -0.008 0.006 0.0005 -0.006 0.008 0.0005 0.01 0 0.0005
0 0.01 0.0005 -0.01 0 0.0005 0.01 0.001 0.0005 0.001
0.01 0.0005 -0.01 0.001 0.0005 -0.001 0.01 0.0005 0.01 0.002
0.0005 0.002 0.01 0.0005 -0.01 0.002 0.0005 -0.002 0.01 0.0005
0.009 0.005 0.0005 0.005 0.009 0.0005 -0.009 0.005 0.0005 -0.005
0.009 0.0005 0.01 0.003 0.0005 0.003 0.01 0.0005 -0.01 0.003
0.0005 -0.003 0.01 0.0005 0.008 0.007 0.0005 0.007 0.008 0.0005
-0.008 0.007 0.0005 -0.007 0.008 0.0005 0.01 0.004 0.0005 0.004
0.01 0.0005 -0.01 0.004 0.0005 -0.004 0.01 0.0005 0.009 0.006
0.0005 0.006 0.009 0.0005 -0.009 0.006 0.0005 -0.006 0.009 0.0005
0.011 0 0.0005 0 0.011 0.0005 -0.011 0 0.0005 0.011
0.001 0.0005 0.001 0.011 0.0005 -0.011 0.001 0.0005 -0.001 0.011
0.0005 0.011 0.002 0.0005 0.002 0.011 0.0005 -0.011 0.002 0.0005
-0.002 0.011 0.0005 0.01 0.005 0.0005 0.005 0.01 0.0005 -0.01
0.005 0.0005 -0.005 0.01 0.0005 0.008 0.008 0.0005 -0.008 0.008
0.0005 0.011 0.003 0.0005 0.009 0.007 0.0005 0.007 0.009 0.0005
0.003 0.011 0.0005 -0.011 0.003 0.0005 -0.009 0.007 0.0005 -0.007
0.009 0.0005 -0.003 0.011 0.0005 0.01 0.006 0.0005 0.006 0.01
0.0005 -0.01 0.006 0.0005 -0.006 0.01 0.0005 0.011 0.004 0.0005
0.004 0.011 0.0005 -0.011 0.004 0.0005 -0.004 0.011 0.0005 0.012
0 0.0005 0 0.012 0.0005 -0.012 0 0.0005 0.012 0.001
0.0005 0.009 0.008 0.0005 0.008 0.009 0.0005 0.001 0.012 0.0005
-0.012 0.001 0.0005 -0.009 0.008 0.0005 -0.008 0.009 0.0005 -0.001
0.012 0.0005 0.011 0.005 0.0005 0.005 0.011 0.0005 -0.011 0.005
0.0005 -0.005 0.011 0.0005 0.012 0.002 0.0005 0.002 0.012 0.0005
-0.012 0.002 0.0005 -0.002 0.012 0.0005 0.01 0.007 0.0005 0.007
0.01 0.0005 -0.01 0.007 0.0005 -0.007 0.01 0.0005 0.012 0.003
0.0005 0.003 0.012 0.0005 -0.012 0.003 0.0005 -0.003 0.012 0.0005
0.011 0.006 0.0005 0.006 0.011 0.0005 -0.011 0.006 0.0005 -0.006
0.011 0.0005 0.012 0.004 0.0005 0.004 0.012 0.0005 -0.012 0.004
0.0005 -0.004 0.012 0.0005 0.009 0.009 0.0005 -0.009 0.009 0.0005
0.01 0.008 0.0005 0.008 0.01 0.0005 -0.01 0.008 0.0005 -0.008
0.01 0.0005 0.013 0 0.0005 0 0.013 0.0005 -0.013 0
0.0005 0.012 0.005 0.0005 0.005 0.012 0.0005 -0.012 0.005 0.0005
-0.005 0.012 0.0005 0.013 0.001 0.0005 0.011 0.007 0.0005 0.007
0.011 0.0005 0.001 0.013 0.0005 -0.013 0.001 0.0005 -0.011 0.007
0.0005 -0.007 0.011 0.0005 -0.001 0.013 0.0005 0.013 0.002 0.0005
0.002 0.013 0.0005 -0.013 0.002 0.0005 -0.002 0.013 0.0005 0.013
0.003 0.0005 0.003 0.013 0.0005 -0.013 0.003 0.0005 -0.003 0.013
0.0005 0.012 0.006 0.0005 0.006 0.012 0.0005 -0.012 0.006 0.0005
-0.006 0.012 0.0005 0.01 0.009 0.0005 0.009 0.01 0.0005 -0.01
0.009 0.0005 -0.009 0.01 0.0005 0.013 0.004 0.0005 0.011 0.008
0.0005 0.008 0.011 0.0005 0.004 0.013 0.0005 -0.013 0.004 0.0005
-0.011 0.008 0.0005 -0.008 0.011 0.0005 -0.004 0.013 0.0005 0.012
0.007 0.0005 0.007 0.012 0.0005 -0.012 0.007 0.0005 -0.007 0.012
0.0005 0.013 0.005 0.0005 0.005 0.013 0.0005 -0.013 0.005 0.0005
-0.005 0.013 0.0005 0.014 0 0.0005 0 0.014 0.0005 -0.014
0 0.0005 0.014 0.001 0.0005 0.001 0.014 0.0005 -0.014 0.001
0.0005 -0.001 0.014 0.0005 0.014 0.002 0.0005 0.01 0.01 0.0005
0.002 0.014 0.0005 -0.014 0.002 0.0005 -0.01 0.01 0.0005 -0.002
0.014 0.0005 0.011 0.009 0.0005 0.009 0.011 0.0005 -0.011 0.009
0.0005 -0.009 0.011 0.0005 0.013 0.006 0.0005 0.006 0.013 0.0005
-0.013 0.006 0.0005 -0.006 0.013 0.0005 0.014 0.003 0.0005 0.003
0.014 0.0005 -0.014 0.003 0.0005 -0.003 0.014 0.0005 0.012 0.008
0.0005 0.008 0.012 0.0005 -0.012 0.008 0.0005 -0.008 0.012 0.0005
0.014 0.004 0.0005 0.004 0.014 0.0005 -0.014 0.004 0.0005 -0.004
0.014 0.0005 0.013 0.007 0.0005 0.007 0.013 0.0005 -0.013 0.007
0.0005 -0.007 0.013 0.0005 0.011 0.01 0.0005 0.01 0.011 0.0005
-0.011 0.01 0.0005 -0.01 0.011 0.0005 0.014 0.005 0.0005 0.005
0.014 0.0005 -0.014 0.005 0.0005 -0.005 0.014 0.0005 0.015 0
0.0005 0.012 0.009 0.0005 0.009 0.012 0.0005 0 0.015 0.0005
-0.015 0 0.0005 -0.012 0.009 0.0005 -0.009 0.012 0.0005 0.015
0.001 0.0005 0.001 0.015 0.0005 -0.015 0.001 0.0005 -0.001 0.015
0.0005 0.015 0.002 0.0005 0.002 0.015 0.0005 -0.015 0.002 0.0005
-0.002 0.015 0.0005 0.014 0.006 0.0005 0.006 0.014 0.0005 -0.014
0.006 0.0005 -0.006 0.014 0.0005 0.013 0.008 0.0005 0.008 0.013
0.0005 -0.013 0.008 0.0005 -0.008 0.013 0.0005 0.015 0.003 0.0005
0.003 0.015 0.0005 -0.015 0.003 0.0005 -0.003 0.015 0.0005 0.015
0.004 0.0005 0.004 0.015 0.0005 -0.015 0.004 0.0005 -0.004 0.015
0.0005 0.011 0.011 0.0005 -0.011 0.011 0.0005 0.012 0.01 0.0005
0.01 0.012 0.0005 -0.012 0.01 0.0005 -0.01 0.012 0.0005 0.014
0.007 0.0005 0.007 0.014 0.0005 -0.014 0.007 0.0005 -0.007 0.014
0.0005 0.015 0.005 0.0005 0.013 0.009 0.0005 0.009 0.013 0.0005
0.005 0.015 0.0005 -0.015 0.005 0.0005 -0.013 0.009 0.0005 -0.009
0.013 0.0005 -0.005 0.015 0.0005 0.016 0 0.0005 0 0.016
0.0005 -0.016 0 0.0005 0.016 0.001 0.0005 0.001 0.016 0.0005
-0.016 0.001 0.0005 -0.001 0.016 0.0005 0.016 0.002 0.0005 0.002
0.016 0.0005 -0.016 0.002 0.0005 -0.002 0.016 0.0005 0.014 0.008
0.0005 0.008 0.014 0.0005 -0.014 0.008 0.0005 -0.008 0.014 0.0005
0.015 0.006 0.0005 0.006 0.015 0.0005 -0.015 0.006 0.0005 -0.006
0.015 0.0005 0.016 0.003 0.0005 0.012 0.011 0.0005 0.011 0.012
0.0005 0.003 0.016 0.0005 -0.016 0.003 0.0005 -0.012 0.011 0.0005
-0.011 0.012 0.0005 -0.003 0.016 0.0005 0.013 0.01 0.0005 0.01
0.013 0.0005 -0.013 0.01 0.0005 -0.01 0.013 0.0005 0.016 0.004
0.0005 0.004 0.016 0.0005 -0.016 0.004 0.0005 -0.004 0.016 0.0005
0.015 0.007 0.0005 0.007 0.015 0.0005 -0.015 0.007 0.0005 -0.007
0.015 0.0005 0.014 0.009 0.0005 0.009 0.014 0.0005 -0.014 0.009
0.0005 -0.009 0.014 0.0005 0.016 0.005 0.0005 0.005 0.016 0.0005
-0.016 0.005 0.0005 -0.005 0.016 0.0005 0.012 0.012 0.0005 -0.012
0.012 0.0005 0.015 0.008 0.0005 0.008 0.015 0.0005 -0.015 0.008
0.0005 -0.008 0.015 0.0005 0.017 0 0.0005 0 0.017 0.0005
-0.017 0 0.0005 0.013 0.011 0.0005 0.011 0.013 0.0005 -0.013
0.011 0.0005 -0.011 0.013 0.0005 0.017 0.001 0.0005 0.001 0.017
0.0005 -0.017 0.001 0.0005 -0.001 0.017 0.0005 0.016 0.006 0.0005
0.006 0.016 0.0005 -0.016 0.006 0.0005 -0.006 0.016 0.0005 0.017
0.002 0.0005 0.002 0.017 0.0005 -0.017 0.002 0.0005 -0.002 0.017
0.0005 0.014 0.01 0.0005 0.01 0.014 0.0005 -0.014 0.01 0.0005
-0.01 0.014 0.0005 0.017 0.003 0.0005 0.003 0.017 0.0005 -0.017
0.003 0.0005 -0.003 0.017 0.0005 0.016 0.007 0.0005 0.007 0.016
0.0005 -0.016 0.007 0.0005 -0.007 0.016 0.0005 0.017 0.004 0.0005
0.004 0.017 0.0005 -0.017 0.004 0.0005 -0.004 0.017 0.0005 0.015
0.009 0.0005 0.009 0.015 0.0005 -0.015 0.009 0.0005 -0.009 0.015
0.0005 0.013 0.012 0.0005 0.012 0.013 0.0005 -0.012 0.013 0.0005
-0.013 0.012 0.0005 0.017 0.005 0.0005 0.005 0.017 0.0005 -0.017
0.005 0.0005 -0.005 0.017 0.0005 0.014 0.011 0.0005 0.011 0.014
0.0005 -0.014 0.011 0.0005 -0.011 0.014 0.0005 0.016 0.008 0.0005
0.008 0.016 0.0005 -0.016 0.008 0.0005 -0.008 0.016 0.0005 0.018
[...]
POINT_DATA 16001
FIELD attributes 17
p 1 16001 float
103397 103394 103356 103439 103353 103437 103316 103387 103482 103312 103345
103481 103433 103304 103479 103276 103377 103526 103273 103334 103527
103424 103264 103294 103528 103473 103237 103368 103570 103233 103326
103571 103414 103252 103526 103224 103285 103575 103464 103212 103243
103577 103519 103197 103358 103614 103193 103319 103616 103404 103184
103279 103622 103453 103200 103573 103171 103235 103626 103509 103157
103351 103658 103153 103313 103660 103395 103146 103272 103666 103443
103156 103190 103625 103564 103134 103227 103670 103497 103117 103331
103702 103114 103141 103298 103704 103619 103380 103119 103176 103671
103552 103109 103260 103708 103429 103098 103210 103712 103485 103103
103120 103667 103608 103082 103303 103747 103080 103270 103747 103357
103084 103152 103713 103540 103076 103236 103749 103411 103080 103658
103068 103180 103751 103471 103067 103088 103711 103597 103055 103100
103751 103527 103051 103240 103790 103050 103215 103790 103321 103047
103160 103790 103388 103044 103049 103704 103648 103040 103023 103749
103586 103039 103085 103789 103456 103028 103015 103788 103515 103015
103696 103021 102995 103744 103638 103026 103147 103831 103025 103123
103831 103273 103022 103093 103829 103361 103014 102927 103785 103577
103016 103006 103826 103438 102996 102971 103737 103687 103006 102927
103824 103503 102997 102925 103781 103630 103001 102988 103869 103000
102949 103868 103250 102999 102950 103866 103350 102993 102838 103821
103569 102961 103729 102992 102974 102921 102919 103863 103776 103680
103431 102979 102852 103818 103623 102982 102861 103860 103499 102976
102637 103903 102976 102941 102916 102794 103902 103770 103723 102485
102969 102778 103858 103566 102976 102804 103900 102383 102954 102869
103813 103675 102971 102854 103898 102266 102954 102793 103855 103621
102962 102862 103895 102176 102904 103765 102928 102878 103808 103719
102953 102615 103933 102948 102794 103893 102081 102953 102924 102827
102737 103933 103851 103674 102481 102954 102776 103931 102376 102951
102841 103930 102266 102930 102792 103890 101996 102898 102876 103804
103761 102944 102896 102857 102855 103928 103847 103717 102176 102894
102820 103888 101912 102931 102810 103926 102083 102932 102573 103960
102933 102682 103960 102465 102934 102877 102741 103959 103800 102365
102876 102862 103843 103760 102914 102799 103925 101998 102933 102793
103958 102264 102869 102845 103885 101840 102928 102812 103957 102178
102883 102815 103923 101914 102865 102871 103841 103799 102920 102797
103956 102087 102917 102852 102850 102530 103983 103882 101775 102918
102620 103983 102443 102917 102685 103983 102352 102908 102797 103956
102002 102859 102831 103922 101840 102915 102740 103982 102261 102910
102765 103982 102179 102863 103840 102839 102853 103880 101715 102890
102807 103955 101917 102898 102832 102835 102770 103982 103920 101774
102091 102906 102505 104003 102905 102582 104003 102430 102902 102646
104003 102346 102862 102815 103955 101841 102877 102779 103983 102007
102898 102836 102843 102703 104003 103880 101657 102260 102808 102834
103919 101714 102889 102730 104003 102179 102849 102790 103983 101920
102826 102815 103954 101772 102873 102737 104004 102094 102825 101596
102824 102792 103984 101841 102897 102466 104020 102805 102822 103918
101656 102895 102549 104020 102427 102846 102751 104005 102010 102891
102609 104019 102346 102798 102813 103953 101711 102884 102656 104019
102259 102808 102765 104006 101923 102875 102681 104020 102180 102792
102792 103983 101769 102804 102812 101596 101535 102861 102701 104021
102095 102786 102802 103953 101652 102779 102768 104007 101841 102889
102502 104032 102888 102767 102793 102549 104033 103983 102511 101706
102839 102725 104023 102011 102882 102571 104033 102476 102875 102595
104033 102444 102755 102769 104008 101767 102794 101535 102810 102744
104025 101923 102865 102627 104034 102416 102785 102793 101476 101593
102763 102777 103983 101647 102853 102666 104036 102390 102782 102750
104026 101841 102741 102771 104008 101702 102835 102704 104038 102366
102881 102530 104043 102879 102551 104044 102499 102875 102784 102780
102557 104044 102469 101477 101535 102766 102769 101424 101590 102867
102764 102747 102575 104045 104028 102441 101766 102815 102729 104040
102343 102747 102760 104008 101644 102858 102608 104046 102414 102849
102644 104048 102388 102793 102738 104041 102322 102756 102746 104029
101701 102779 101478 102776 102768 101425 101534 102839 102678 104050
102365 102761 102750 101380 101588 102872 102514 104052 102871 102535
104052 102492 102867 102555 104053 102465 102777 102735 104043 102303
102859 102574 104055 102439 102828 102756 102740 102701 104052 104028
102343 101642 102850 102597 104056 102412 102778 102767 101427 101479
102772 102726 104044 102285 102815 102769 102750 102712 104054 102322
101381 101534 102843 102622 104058 102387 102767 102725 101345 101587
102832 102647 104060 102364 102862 102510 104060 102799 102712 104055
102304 102861 102530 104060 102487 102773 102719 104044 102267 102857
102545 104062 102461 102823 102668 104062 102342 102764 101430 102850
102561 104063 102435 102768 102753 101384 101481 102843 102580 104065
102410 102774 102723 101347 101533 102792 102702 104056 102286 102817
102681 104063 102322 102836 102600 104067 102385 102782 102689 102248
101320 102831 102622 104069 102362 102811 102760 102755 102687 104065
102304 101387 101432 102793 102695 104056 102267 102852 102505 104065
102850 102521 104066 102483 102772 102736 101350 101481 102846 102535
104067 102459 102825 102640 104070 102341 102840 102783 102690 102548
104069 102231 102433 101321 102833 102561 104071 102408 102810 102685
104066 102287 102817 102793 102666 102654 104072 102249 102322 101300
102827 102576 104073 102383 102757 101390 102769 102746 101353 101433
102827 102779 102725 102593 104074 102215 102361 101323 102810 102683
104065 102269 102820 102664 104073 102305 102842 102505 104069 102841
102790 102680 102518 104069 102232 102483 101301 102837 102828 102610
102525 104071 104076 102340 102459 102831 102533 104072 102433 102830
102674 104074 102288 102805 102675 102251 101284 102823 102541 104074
102407 102767 102761 101356 101391 102823 102627 104077 102322 102779
102738 102202 101326 102814 102552 104076 102382 102779 102727 102216
101302 102826 102685 104073 102271 102809 102823 102643 102566 104077
104078 102306 102359 102794 102695 102233 101285 102834 102513 104067
102832 102520 104068 102486 102810 102583 104079 102339 102767 101356
102828 102773 102759 102517 104069 102192 102460 101328 102827 102661
104079 102290 102820 102814 102693 102518 104070 102253 102433 101271
102772 102736 102202 101304 102808 102517 104072 102406 102816 102601
104080 102322 102780 102729 102217 101286 102793 102523 104073 102380
102824 102681 104078 102274 102823 102622 104082 102307 102800 102707
102235 101271 102785 102534 104075 102357 102764 102767 102185 101329
102768 102750 102192 101306 102788 102768 102739 102550 104076 102202
102338 101286 102825 102519 104063 102824 102529 104064 102497 102810
102699 102256 101261 102822 102646 104083 102292 102820 102517 104064
102465 102814 102509 104066 102436 102781 102730 102218 101270 102798
102572 104078 102322 102802 102499 104067 102407 102762 102180 102814
102763 102760 102673 104082 102185 102276 101306 102792 102498 104069
102381 102794 102717 102237 101261 102760 102748 102191 101287 102812
102598 104080 102308 102779 102504 104070 102357 102764 102742 102202
101269 102803 102700 102258 101254 102772 102520 104072 102338 102817
102532 102816 102629 104081 102294 102817 102526 102816 102774 102736
102517 102219 101258 102814 102759 102760 102505 102180 102175 102754
102755 102184 101286 102779 102543 104073 102322 102808 102493 102806
102749 102749 102663 104080 102190 102278 101268 102788 102724 102239
101253 102797 102487 102792 102573 104076 102308 102753 102748 102203
101256 102786 102489 102792 102697 102259 101253 102757 102176 102752
102758 102171 102178 102774 102771 102743 102502 102220 101249 102799
102611 104077 102294 102810 102539 102811 102533 102741 102755 102182
101267 102810 102524 102808 102512 102764 102738 102755 102523 102189
101253 102805 102499 102780 102727 102240 101252 102797 102653 104076
102278 102790 102752 102755 102492 102203 101245 102762 102554 102753
102758 102172 102174 102775 102493 102740 102758 102166 102176 102787
102696 102260 101257 102767 102750 102220 101247 102729 102761 102180
101251 102768 102594 102761 102502 102805 102548 102734 102760 102189
101241 102806 102543 102807 102533 102742 102521 102807 102522 102775
102734 102240 101256 102776 102639 102806 102755 102511 102170 102752
102765 102203 101241 102743 102758 102167 102172 102729 102763 102161
102173 102799 102506 102734 102549 102725 102765 102178 101239 102773
102683 102787 102506 102762 102761 102220 101251 102740 102585 102738
102772 102188 101237 102762 102514 102803 102745 102753 102552 102166
102168 102803 102548 102764 102732 102761 102722 102163 102169 102805
102541 102738 102530 102757 102626 102807 102751 102772 102531 102202
101245 102724 102768 102158 102171 102806 102522 102730 102729 102774
102554 102178 101234 102798 102518 102756 102749 102761 102665 102779
102518 102748 102774 102188 101240 102743 102165 102732 102754 102163
102167 102735 102584 102720 102763 102160 102167 102758 102525 102757
102699 102799 102720 102772 102556 102156 102171 102749 102760 102800
102553 102801 102545 102740 102750 102617 102539 102801 102535 102737
102773 102176 101238 102797 102528 102731 102558 102789 102755 102725
102524 102728 102742 102163 102164 102753 102651 102715 102753 102160
102165 102740 102762 102766 102524 102709 102763 102159 102166 102735
102582 102746 102531 102720 102769 102157 102169 102751 102680 102753
102741 102795 102557 102796 102555 102744 102608 102741 102543 102796
102729 102761 102548 102726 102163 102797 102709 102738 102540 102160
102163 102699 102749 102159 102164 102794 102533 102750 102704 102736
102558 102747 102750 102749 102634 102789 102529 102701 102760 102160
102165 102776 102530 102736 102716 102759 102576 102750 102720 102760
102746 102658 102535 102704 102719 102161 102163 102688 102731 102160
102163 102739 102751 102743 102597 102793 102555 102793 102751 102544
102553 102682 102745 102160 102163 102794 102547 102794 102540 102692
102752 102747 102680 102792 102534 102752 102730 102746 102556 102745
102618 102784 102530 102715 102749 102697 102162 102769 102680 102710
102530 102161 102163 102743 102570 102747 102666 102726 102697 102161
102161 102747 102638 102755 102534 102743 102733 102667 102738 102744
102586 102748 102542 102792 102551 102682 102740 102793 102549 102793
102544 102751 102656 102744 102708 102793 102539 102749 102746 102601
102551 102790 102672 102686 102533 102163 102163 102719 102732 102655
102703 102163 102161 102785 102530 102645 102719 102748 102562 102753
102671 102777 102530 102653 102726 102746 102616 102738 102714 102767
102533 102748 102574 102680 102724 102661 102164 102761 102538 102646
102678 102164 102161 102755 102682 102795 102541 102795 102749 102631
102540 102630 102695 102795 102536 102793 102708 102713 102531 102745
102585 102758 102625 102708 102545 102790 102527 102785 102524 102642
102711 102749 102644 102750 102688 102754 102553 102779 102524 102743
102596 102636 102651 102166 102162 102669 102706 102621 102669 102776
102526 102750 102562 102608 102685 102745 102654 102743 102606 102770
102531 102723 102689 102798 102610 102694 102531 102798 102530 102796
102526 102744 102570 102794 102522 102763 102537 102790 102639 102694
102519 102740 102615 102744 102660 102785 102625 102516 102164 102612
102641 102759 102543 102738 102598 102660 102576 102685 102684 102780
102516 102588 102673 102775 102519 102753 102550 102733 102622 102602
102677 102736 102662 102736 102582 102769 102523 102803 102517 102802
102516 102799 102645 102673 102512 102743 102555 102600 102615 102795
102508 102589 102632 102763 102528 102789 102505 102729 102576 102648
102629 102734 102587 102782 102503 102702 102659 102575 102658 102758
102736 102559 102534 102777 102504 102602 102659 102771 102507 102727
102592 102750 102539 102711 102633 102589 102732 102561 102577 102605
102764 102511 102566 102622 102653 102651 102806 102504 102739 102543
102805 102503 102558 102635 102802 102499 102755 102517 102797 102495
102714 102598 102729 102563 102567 102640 102790 102491 102672 102632
102781 102489 102733 102545 102748 102523 102604 102639 102772 102490
102564 102577 102554 102593 102721 102565 102694 102603 102740 102528
102546 102609 102765 102493 102727 102545 102632 102627 102544 102619
102759 102499 102733 102532 102809 102494 102808 102563 102621 102492
102708 102570 102805 102487 102748 102505 102723 102655 102605 102545
102799 102482 102550 102795 102539 102564 102477 102729 102535 102593
102617 102532 102579 102737 102512 102788 102475 102529 102592 102778
102685 102575 102476 102716 102546 102614 102603 102730 102519 102535
102600 102722 102535 102769 102479 102557 102601 102762 102485 102727
102525 102522 102534 102703 102549 102652 102515 102548 102579 102716
102535 102814 102489 102813 102487 102748 102492 102810 102513 102562
102481 102806 102474 102583 102595 102802 102515 102574 102468 102726
102529 102730 102500 102796 102465 102682 102554 102708 102535 102528
102580 102617 102579 102786 102465 102720 102531 102724 102509 102504
102777 102496 102515 102468 102551 102581 102493 102530 102696 102538
102765 102474 102649 102496 102543 102559 102725 102517 102713 102532
102583 102574 102505 102554 102820 102490 102819 102487 102746 102481
102817 102480 102814 102472 102723 102524 102809 102465 102521 102561
102678 102542 102728 102490 102703 102533 102805 102616 102475 102483
102561 102460 102471 102495 102798 102459 102474 102510 102720 102547
102562 102529 102724 102500 102789 102483 102524 102461 102650 102547
102691 102536 102774 102466 102725 102510 102495 102536 102582 102557
102712 102532 102754 102473 102828 102497 102827 102452 102494 102448
102461 102516 102545 102825 102486 102449 102474 102822 102724 102519
102476 102673 102540 102617 102550 102817 102468 102701 102459 102490
102535 102736 102483 102811 102462 102547 102548 102472 102507 102721
102526 102804 102460 102730 102493 102649 102544 102797 102461 102487
102522 102687 102539 102585 102548 102423 102429 102729 102504 102424
102439 102784 102465 102713 102533 102432 102454 102515 102533 102763
102471 102836 102508 102836 102446 102473 102505 102669 102543 102834
102497 102620 102546 102725 102514 102832 102486 102702 102538 102552
102540 102827 102477 102746 102462 102493 102480 102820 102469 102722
102524 102399 102813 102465 102483 102512 102398 102405 102740 102490
102647 102547 102405 102418 102590 102545 102687 102543 102804 102465
102418 102437 102517 102527 102716 102532 102735 102502 102792 102468
102437 102460 102621 102550 102669 102549 102772 102473 102844 102522
102844 102519 102728 102513 102456 102485 102556 102539 102842 102511
102705 102540 102840 102499 102372 102374 102757 102481 102837 102489
102377 102384 102483 102507 102390 102400 102833 102481 102723 102523
102649 102554 102826 102476 102591 102409 102423 102548 102750 102492
102691 102547 102817 102521 102527 102474 102431 102452 102717 102533
102741 102503 102805 102475 102624 102454 102481 102557 102346 102672
102349 102351 102554 102561 102543 102789 102480 102360 102365 102731
102514 102851 102535 102851 102532 102708 102542 102850 102524 102379
102386 102848 102488 102508 102513 102774 102487 102845 102503 102403
102415 102725 102525 102840 102494 102652 102560 102598 102556 102764
102496 102696 102551 102833 102428 102449 102488 102529 102531 102825
102321 102322 102484 102719 102331 102331 102536 102750 102507 102457
102483 102348 102349 102814 102484 102630 102565 102572 102551 102678
102559 102372 102377 102801 102488 102737 102519 102712 102495 102513
102546 102856 102400 102412 102544 102856 102542 102855 102536 102854
102526 102788 102494 102852 102516 102608 102565 102659 102567 102729
102430 102451 102530 102295 102849 102543 102540 102507 102301 102299
102702 102555 102317 102314 102776 102503 102843 102500 102340 102338
102464 102489 102834 102725 102540 102496 102761 102369 102373 102513
102639 102573 102585 102562 102687 102564 102824 102495 102509 102523
102402 102414 102746 102719 102551 102524 102813 102498 102272 102271
102859 102549 102859 102285 102280 102547 102859 102438 102457 102543
102621 102575 102858 102801 102503 102536 102670 102307 102301 102573
102558 102552 102857 102737 102535 102527 102336 102333 102711 102560
102854 102519 102791 102511 102477 102499 102849 102512 102370 102374
102733 102546 102651 102580 102843 102507 102599 102574 102775 102520
102699 102570 102409 102420 102527 102536 102244 102836 102505 102253
102248 102272 102265 102729 102556 102759 102531 102301 102293 102827
102507 102450 102468 102634 102585 102860 102549 102683 102336 102333
102579 102860 102573 102566 102548 102860 102546 102818 102512 102860
102542 102749 102542 102859 102723 102566 102536 102495 102512 102377
102380 102857 102528 102808 102519 102853 102521 102221 102218 102614
102585 102664 102588 102237 102229 102744 102420 102432 102552 102265
102255 102546 102551 102849 102516 102793 102713 102575 102527 102300
102292 102845 102514 102467 102482 102740 102562 102776 102537 102342
102338 102841 102646 102594 102515 102591 102580 102702 102584 102862
102547 102862 102388 102392 102547 102516 102529 102862 102547 102837
102519 102763 102548 102189 102862 102546 102735 102201 102195 102572
102862 102226 102217 102541 102862 102436 102447 102535 102262 102252
102828 102526 102628 102596 102682 102593 102860 102567 102567 102528
102756 102558 102305 102297 102727 102580 102857 102812 102534 102523
102488 102500 102352 102349 102856 102521 102750 102568 102663 102601
102794 102610 102593 102543 102164 102161 102404 102407 102854 102186
102178 102522 102718 102589 102538 102546 102222 102212 102864 102546
102865 102546 102852 102525 102778 102744 102266 102256 102577 102553
102865 102548 102866 102457 102465 102548 102866 102545 102647 102605
102315 102308 102588 102582 102845 102700 102597 102532 102866 102539
102765 102563 102867 102533 102737 102584 102510 102519 102369 102366
102831 102540 102866 102128 102528 102143 102138 102178 102170 102629
102603 102867 102756 102425 102426 102572 102525 102681 102605 102224
102215 102811 102549 102562 102564 102728 102592 102277 102267 102868
102526 102481 102486 102747 102580 102792 102333 102325 102558 102867
102546 102868 102530 102868 102546 102868 102548 102666 102610 102868
102549 102610 102596 102714 102599 102869 102546 102102 102099 102860
102391 102387 102536 102536 102539 102131 102126 102869 102540 102773
102567 102741 102179 102173 102587 102870 102534 102235 102228 102845
102544 102451 102449 102872 102529 102650 102611 102700 102607 102756
102575 102586 102296 102286 102580 102875 102527 102825 102734 102593
102553 102508 102509 102357 102347 102879 102528 102066 102745 102582
102085 102082 102800 102561 102685 102130 102127 102612 102880 102531
102870 102632 102606 102871 102871 102420 102412 102724 102600 102871
102190 102187 102563 102559 102872 102870 102537 102255 102249 102872
102775 102568 102739 102588 102481 102475 102873 102322 102310 102852
102545 102671 102614 102875 102714 102612 102595 102606 102754 102576
102388 102374 102878 102735 102539 102045 102044 102532 102594 102831
102081 102081 102554 102141 102143 102880 102212 102211 102453 102440
102740 102582 102656 102613 102703 102611 102805 102562 102880 102593
102578 102872 102730 102600 102872 102284 102276 102873 102873 102873
102515 102502 102872 102355 102338 102777 102734 102588 102569 102873
102021 102692 102614 102875 102039 102042 102640 102606 102855 102725