# PROC_ID PARCEL_ID CellI X Y Z p Ux Uy Uz T C3H8 CO2 H2O N2 O2 largest_pointer wherePositive largest_pointerWP
2.000000e+00 1.160000e+02 2.070000e+02 1.439980e-01 3.203940e-03 5.000000e-04 1.073170e+05 3.803190e+01 -2.950670e-01 0.000000e+00 2.886830e+02 5.986520e-02 1.760130e-09 9.606730e-10 7.239050e-01 2.162300e-01 6.000000e+00 0.000000e+00 0.000000e+00
2.000000e+00 1.520000e+02 4.150000e+02 1.439780e-01 7.616120e-03 5.000000e-04 1.072830e+05 3.761310e+01 2.734360e-01 0.000000e+00 2.900030e+02 1.261340e-01 1.214490e-08 6.628640e-09 6.728770e-01 2.009890e-01 1.100000e+01 0.000000e+00 0.000000e+00
2.000000e+00 8.900000e+01 6.220000e+02 1.427310e-01 1.161080e-02 5.000000e-04 1.073050e+05 3.520850e+01 -4.246290e-01 0.000000e+00 2.919320e+02 2.276700e-01 3.550820e-09 1.938020e-09 5.946940e-01 1.776360e-01 7.000000e+00 0.000000e+00 0.000000e+00
2.000000e+00 1.510000e+02 3.110000e+02 1.433680e-01 5.483390e-03 5.000000e-04 1.072950e+05 3.770040e+01 -1.188250e-01 0.000000e+00 2.890520e+02 8.582440e-02 7.673190e-09 4.188000e-09 7.039160e-01 2.102600e-01 5.000000e+00 0.000000e+00 0.000000e+00
2.000000e+00 1.170000e+02 1.540000e+02 1.428640e-01 2.437460e-03 5.000000e-04 1.073420e+05 3.813970e+01 -2.587330e-01 0.000000e+00 2.891650e+02 4.533430e-02 8.183560e-10 4.466550e-10 7.350930e-01 2.195720e-01 8.000000e+00 0.000000e+00 0.000000e+00
2.000000e+00 8.800000e+01 5.700000e+02 1.429410e-01 1.066470e-02 5.000000e-04 1.073080e+05 3.638300e+01 9.959090e-02 0.000000e+00 2.918590e+02 2.097380e-01 7.270100e-09 3.967990e-09 6.085010e-01 1.817600e-01 6.000000e+00 0.000000e+00 0.000000e+00
2.000000e+00 1.500000e+02 2.060000e+02 1.422580e-01 3.379110e-03 5.000000e-04 1.073330e+05 3.807680e+01 -3.582060e-01 0.000000e+00 2.893090e+02 6.724920e-02 2.467020e-09 1.346490e-09 7.182190e-01 2.145320e-01 9.000000e+00 0.000000e+00 0.000000e+00
2.000000e+00 1.490000e+02 1.520000e+02 1.407290e-01 2.956830e-03 5.000000e-04 1.073690e+05 3.789420e+01 -3.454580e-01 0.000000e+00 2.896410e+02 4.715420e-02 9.846310e-10 5.374080e-10 7.336920e-01 2.191540e-01 6.000000e+00 0.000000e+00 0.000000e+00
2.000000e+00 8.700000e+01 5.180000e+02 1.420020e-01 9.144190e-03 5.000000e-04 1.073060e+05 3.696430e+01 5.521120e-01 0.000000e+00 2.916260e+02 1.870030e-01 1.336590e-08 7.295040e-09 6.260080e-01 1.869890e-01 7.000000e+00 0.000000e+00 0.000000e+00
2.000000e+00 1.480000e+02 2.040000e+02 1.401240e-01 3.906530e-03 5.000000e-04 1.073650e+05 3.795050e+01 -5.208780e-01 0.000000e+00 2.900080e+02 6.952570e-02 3.096410e-09 1.690010e-09 7.164660e-01 2.140080e-01 9.000000e+00 0.000000e+00 0.000000e+00
2.000000e+00 1.280000e+02 5.150000e+02 1.393040e-01 9.420750e-03 5.000000e-04 1.073640e+05 3.767460e+01 8.536690e-01 0.000000e+00 2.966940e+02 1.992550e-01 5.582840e-08 3.047090e-08 6.165730e-01 1.841730e-01 5.000000e+00 0.000000e+00 0.000000e+00
2.000000e+00 1.270000e+02 5.150000e+02 1.395180e-01 9.403210e-03 5.000000e-04 1.073640e+05 3.767460e+01 8.536690e-01 0.000000e+00 2.966940e+02 1.992550e-01 5.582840e-08 3.047090e-08 6.165730e-01 1.841730e-01 5.000000e+00 0.000000e+00 0.000000e+00
2.000000e+00 1.870000e+02 4.130000e+02 1.411870e-01 7.238510e-03 5.000000e-04 1.073290e+05 3.842690e+01 4.690470e-01 0.000000e+00 2.928460e+02 1.374460e-01 3.822640e-08 2.086380e-08 6.641670e-01 1.983880e-01 5.000000e+00 0.000000e+00 0.000000e+00
2.000000e+00 1.470000e+02 2.550000e+02 1.398310e-01 4.898630e-03 5.000000e-04 1.073820e+05 3.829190e+01 -7.745930e-01 0.000000e+00 2.914850e+02 8.340810e-02 1.167070e-08 6.369800e-09 7.057760e-01 2.108160e-01 5.000000e+00 0.000000e+00 0.000000e+00
2.000000e+00 1.440000e+02 4.500000e+01 1.373640e-01 0.000000e+00 5.000000e-04 1.074050e+05 3.753660e+01 -8.003900e-02 0.000000e+00 2.896390e+02 8.217420e-03 9.024770e-11 4.925680e-11 7.636730e-01 2.281100e-01 8.000000e+00 0.000000e+00 0.000000e+00
2.000000e+00 1.880000e+02 4.120000e+02 1.406620e-01 7.711020e-03 5.000000e-04 1.073510e+05 3.899850e+01 2.355930e-01 0.000000e+00 2.939040e+02 1.387820e-01 4.629720e-08 2.526880e-08 6.631380e-01 1.980800e-01 5.000000e+00 0.000000e+00 0.000000e+00
2.000000e+00 1.450000e+02 9.600000e+01 1.369870e-01 1.421790e-03 5.000000e-04 1.074130e+05 3.730050e+01 -2.056090e-01 0.000000e+00 2.899420e+02 1.742890e-02 5.550290e-10 3.029330e-10 7.565800e-01 2.259910e-01 6.000000e+00 0.000000e+00 0.000000e+00
2.000000e+00 1.860000e+02 3.600000e+02 1.406010e-01 6.880620e-03 5.000000e-04 1.073500e+05 3.907190e+01 -2.121790e-01 0.000000e+00 2.929140e+02 1.168790e-01 3.442330e-08 1.878810e-08 6.800030e-01 2.031180e-01 5.000000e+00 0.000000e+00 0.000000e+00
2.000000e+00 1.260000e+02 4.600000e+02 1.360070e-01 8.892390e-03 5.000000e-04 1.074310e+05 4.061090e+01 -4.883880e-01 0.000000e+00 3.004690e+02 1.708420e-01 2.253460e-07 1.229930e-07 6.384510e-01 1.907070e-01 5.000000e+00 0.000000e+00 0.000000e+00
2.000000e+00 1.460000e+02 1.480000e+02 1.363380e-01 2.700770e-03 5.000000e-04 1.074190e+05 3.729940e+01 -3.655270e-01 0.000000e+00 2.910050e+02 3.504980e-02 2.776450e-09 1.515380e-09 7.430110e-01 2.219390e-01 6.000000e+00 0.000000e+00 0.000000e+00
2.000000e+00 1.290000e+02 5.060000e+02 1.306220e-01 9.941670e-03 5.000000e-04 1.077350e+05 3.732670e+01 -3.407820e+00 0.000000e+00 3.001370e+02 1.823750e-01 1.867940e-06 1.019510e-06 6.295700e-01 1.880520e-01 5.000000e+00 0.000000e+00 0.000000e+00
2.000000e+00 1.850000e+02 3.590000e+02 1.397140e-01 6.231990e-03 5.000000e-04 1.073830e+05 3.963180e+01 -4.042900e-01 0.000000e+00 2.938970e+02 1.166050e-01 4.656460e-08 2.541480e-08 6.802140e-01 2.031810e-01 6.000000e+00 0.000000e+00 0.000000e+00
2.000000e+00 1.300000e+02 9.150000e+02 1.233960e-01 1.715540e-02 5.000000e-04 1.079810e+05 2.855340e+01 1.618930e+00 0.000000e+00 2.899150e+02 2.137170e-01 9.201450e-06 5.022110e-06 6.054350e-01 1.808340e-01 5.000000e+00 0.000000e+00 0.000000e+00
2.000000e+00 1.830000e+02 1.470000e+02 1.351610e-01 2.233190e-03 5.000000e-04 1.074330e+05 3.721680e+01 -2.287630e-01 0.000000e+00 2.915850e+02 2.676730e-02 3.519730e-09 1.921050e-09 7.493890e-01 2.238440e-01 6.000000e+00 0.000000e+00 0.000000e+00
2.000000e+00 1.820000e+02 4.300000e+01 1.353350e-01 0.000000e+00 5.000000e-04 1.074250e+05 3.725740e+01 -5.413180e-02 0.000000e+00 2.896920e+02 5.833490e-03 1.388510e-10 7.578410e-11 7.655080e-01 2.286580e-01 1.100000e+01 0.000000e+00 0.000000e+00
2.000000e+00 9.000000e+01 1.585000e+03 1.177460e-01 3.052820e-02 5.000000e-04 1.079630e+05 2.303120e+01 5.155460e+00 0.000000e+00 2.899210e+02 1.722030e-01 2.350170e-09 1.282710e-09 6.374040e-01 1.903930e-01 5.000000e+00 0.000000e+00 0.000000e+00
2.000000e+00 9.400000e+01 1.534000e+03 1.182340e-01 2.976010e-02 5.000000e-04 1.079930e+05 2.358070e+01 4.602120e+00 0.000000e+00 2.898800e+02 1.792250e-01 2.895950e-09 1.580600e-09 6.319970e-01 1.887780e-01 7.000000e+00 0.000000e+00 0.000000e+00
2.000000e+00 1.840000e+02 2.510000e+02 1.356630e-01 4.258520e-03 5.000000e-04 1.074480e+05 3.856480e+01 -3.720180e-01 0.000000e+00 3.013970e+02 5.654150e-02 4.404450e-08 2.403930e-08 7.264630e-01 2.169960e-01 5.000000e+00 0.000000e+00 0.000000e+00
2.000000e+00 9.500000e+01 1.121000e+03 1.218850e-01 2.116820e-02 5.000000e-04 1.079690e+05 2.651610e+01 2.802990e+00 0.000000e+00 2.899780e+02 2.044550e-01 1.349660e-07 7.366370e-08 6.125690e-01 1.829760e-01 6.000000e+00 0.000000e+00 0.000000e+00
2.000000e+00 1.310000e+02 1.070000e+03 1.220450e-01 2.013950e-02 5.000000e-04 1.079110e+05 2.671420e+01 2.466260e+00 0.000000e+00 2.898860e+02 2.085670e-01 2.619400e-07 1.429660e-07 6.094030e-01 1.820300e-01 6.000000e+00 0.000000e+00 0.000000e+00
2.000000e+00 8.500000e+01 9.140000e+02 1.224080e-01 1.797230e-02 5.000000e-04 1.079950e+05 2.858370e+01 2.493380e+00 0.000000e+00 2.901140e+02 2.131340e-01 2.303560e-05 1.257270e-05 6.058810e-01 1.809500e-01 6.000000e+00 0.000000e+00 0.000000e+00
2.000000e+00 1.890000e+02 5.560000e+02 1.281890e-01 1.077310e-02 5.000000e-04 1.078470e+05 3.478500e+01 -3.107250e+00 0.000000e+00 2.978640e+02 1.929230e-01 4.158680e-06 2.269790e-06 6.214480e-01 1.856230e-01 6.000000e+00 0.000000e+00 0.000000e+00
2.000000e+00 9.300000e+01 1.739000e+03 1.153000e-01 3.345110e-02 5.000000e-04 1.078000e+05 2.135160e+01 5.784920e+00 0.000000e+00 2.897660e+02 1.837440e-01 2.529660e-10 1.380680e-10 6.285170e-01 1.877390e-01 5.000000e+00 0.000000e+00 0.000000e+00
2.000000e+00 2.290000e+02 3.550000e+02 1.353220e-01 6.956210e-03 5.000000e-04 1.074630e+05 4.067730e+01 -8.235020e-01 0.000000e+00 3.071940e+02 9.312880e-02 2.703920e-07 1.475790e-07 6.982910e-01 2.085800e-01 8.000000e+00 0.000000e+00 0.000000e+00
2.000000e+00 2.310000e+02 5.050000e+02 1.297080e-01 9.613320e-03 5.000000e-04 1.077970e+05 3.665240e+01 -2.967360e+00 0.000000e+00 3.011640e+02 1.644790e-01 3.860780e-06 2.107200e-06 6.433500e-01 1.921650e-01 6.000000e+00 0.000000e+00 0.000000e+00
2.000000e+00 9.200000e+01 1.789000e+03 1.138240e-01 3.497250e-02 5.000000e-04 1.077530e+05 1.996680e+01 6.218670e+00 0.000000e+00 2.898980e+02 1.742630e-01 2.329590e-10 1.271480e-10 6.358180e-01 1.899200e-01 5.000000e+00 0.000000e+00 0.000000e+00
2.000000e+00 9.100000e+01 1.840000e+03 1.129630e-01 3.564130e-02 5.000000e-04 1.077990e+05 1.922500e+01 5.804850e+00 0.000000e+00 2.898500e+02 1.879970e-01 8.866230e-11 4.839150e-11 6.252430e-01 1.867610e-01 5.000000e+00 0.000000e+00 0.000000e+00
2.000000e+00 2.280000e+02 3.530000e+02 1.334200e-01 6.311950e-03 5.000000e-04 1.075300e+05 4.031470e+01 -8.584160e-01 0.000000e+00 3.101120e+02 9.238500e-02 3.836180e-07 2.093770e-07 6.988640e-01 2.087500e-01 6.000000e+00 0.000000e+00 0.000000e+00
2.000000e+00 1.320000e+02 1.224000e+03 1.204030e-01 2.324990e-02 5.000000e-04 1.080530e+05 2.615130e+01 2.933970e+00 0.000000e+00 2.901070e+02 1.938670e-01 3.580770e-08 1.954370e-08 6.207220e-01 1.854110e-01 5.000000e+00 0.000000e+00 0.000000e+00
2.000000e+00 1.250000e+02 1.068000e+03 1.203110e-01 2.080230e-02 5.000000e-04 1.080320e+05 2.697140e+01 3.193080e+00 0.000000e+00 2.901310e+02 2.108890e-01 2.419110e-06 1.320340e-06 6.076150e-01 1.814930e-01 8.000000e+00 0.000000e+00 0.000000e+00
2.000000e+00 2.200000e+02 3.900000e+01 1.318750e-01 0.000000e+00 5.000000e-04 1.076680e+05 3.792650e+01 -1.899360e-04 0.000000e+00 2.898690e+02 1.312140e-03 5.008000e-10 2.733350e-10 7.689900e-01 2.296980e-01 8.000000e+00 0.000000e+00 0.000000e+00
2.000000e+00 2.210000e+02 3.900000e+01 1.318870e-01 9.676950e-04 5.000000e-04 1.076680e+05 3.792650e+01 -1.899360e-04 0.000000e+00 2.898690e+02 1.312140e-03 5.008000e-10 2.733350e-10 7.689900e-01 2.296980e-01 8.000000e+00 0.000000e+00 0.000000e+00
2.000000e+00 2.220000e+02 9.100000e+01 1.318830e-01 1.460630e-03 5.000000e-04 1.076670e+05 3.799070e+01 -1.078160e-01 0.000000e+00 2.903450e+02 5.928870e-03 2.374050e-09 1.295750e-09 7.654350e-01 2.286360e-01 6.000000e+00 0.000000e+00 0.000000e+00
2.000000e+00 2.230000e+02 1.430000e+02 1.318820e-01 2.522260e-03 5.000000e-04 1.076640e+05 3.808590e+01 -6.059490e-02 0.000000e+00 2.921370e+02 1.459470e-02 1.090790e-08 5.953500e-09 7.587620e-01 2.266430e-01 5.000000e+00 0.000000e+00 0.000000e+00
2.000000e+00 2.240000e+02 1.950000e+02 1.316940e-01 3.085130e-03 5.000000e-04 1.076600e+05 3.828740e+01 -7.537250e-02 0.000000e+00 2.969490e+02 3.075040e-02 3.725090e-08 2.033140e-08 7.463220e-01 2.229280e-01 9.000000e+00 0.000000e+00 0.000000e+00
2.000000e+00 1.670000e+02 1.171000e+03 1.199090e-01 2.243500e-02 5.000000e-04 1.081120e+05 2.668450e+01 2.795650e+00 0.000000e+00 2.903770e+02 2.037090e-01 4.596790e-07 2.508910e-07 6.131440e-01 1.831470e-01 5.000000e+00 0.000000e+00 0.000000e+00
2.000000e+00 2.250000e+02 1.940000e+02 1.307920e-01 3.395780e-03 5.000000e-04 1.077360e+05 3.850290e+01 -3.597250e-01 0.000000e+00 2.970330e+02 3.038740e-02 4.734640e-08 2.584150e-08 7.466020e-01 2.230110e-01 8.000000e+00 0.000000e+00 0.000000e+00
2.000000e+00 1.680000e+02 1.223000e+03 1.195350e-01 2.343110e-02 5.000000e-04 1.081040e+05 2.648980e+01 2.792580e+00 0.000000e+00 2.903230e+02 1.961370e-01 1.408550e-07 7.687830e-08 6.189740e-01 1.848890e-01 6.000000e+00 0.000000e+00 0.000000e+00
2.000000e+00 2.270000e+02 2.460000e+02 1.305190e-01 4.835790e-03 5.000000e-04 1.077300e+05 3.881890e+01 -4.635460e-01 0.000000e+00 3.043780e+02 5.306030e-02 1.806970e-07 9.862340e-08 7.291440e-01 2.177960e-01 5.000000e+00 0.000000e+00 0.000000e+00
2.000000e+00 1.660000e+02 1.171000e+03 1.194810e-01 2.258790e-02 5.000000e-04 1.081120e+05 2.668450e+01 2.795650e+00 0.000000e+00 2.903770e+02 2.037090e-01 4.596790e-07 2.508910e-07 6.131440e-01 1.831470e-01 5.000000e+00 0.000000e+00 0.000000e+00
2.000000e+00 2.630000e+02 4.540000e+02 1.302830e-01 8.063440e-03 5.000000e-04 1.077280e+05 3.870550e+01 -2.377470e+00 0.000000e+00 3.073190e+02 1.381350e-01 3.885030e-06 2.120430e-06 6.636360e-01 1.982230e-01 6.000000e+00 0.000000e+00 0.000000e+00
2.000000e+00 2.620000e+02 3.500000e+02 1.304880e-01 6.652860e-03 5.000000e-04 1.077250e+05 3.940000e+01 -1.146400e+00 0.000000e+00 3.134170e+02 9.477010e-02 1.656390e-06 9.040490e-07 6.970270e-01 2.082000e-01 6.000000e+00 0.000000e+00 0.000000e+00
2.000000e+00 1.900000e+02 1.114000e+03 1.140580e-01 2.143870e-02 5.000000e-04 1.081170e+05 2.388800e+01 6.493010e+00 0.000000e+00 2.937780e+02 2.327940e-01 3.046680e-04 1.662860e-04 5.906710e-01 1.760640e-01 8.000000e+00 0.000000e+00 0.000000e+00
2.000000e+00 7.800000e+01 6.560000e+02 1.240010e-01 1.283880e-02 5.000000e-04 1.080520e+05 3.344550e+01 -9.171350e-01 0.000000e+00 2.968360e+02 1.803780e-01 1.524460e-04 8.320420e-05 6.310700e-01 1.883170e-01 9.000000e+00 0.000000e+00 0.000000e+00
2.000000e+00 1.530000e+02 1.165000e+03 1.135630e-01 2.227280e-02 5.000000e-04 1.080300e+05 2.329130e+01 8.065040e+00 0.000000e+00 2.946930e+02 2.332090e-01 2.767420e-04 1.510450e-04 5.903580e-01 1.760050e-01 6.000000e+00 0.000000e+00 0.000000e+00
2.000000e+00 2.260000e+02 2.440000e+02 1.287920e-01 4.750510e-03 5.000000e-04 1.078540e+05 3.866010e+01 -1.299690e+00 0.000000e+00 3.047030e+02 5.700510e-02 4.177770e-07 2.280210e-07 7.261070e-01 2.168880e-01 5.000000e+00 0.000000e+00 0.000000e+00
2.000000e+00 2.580000e+02 3.600000e+01 1.281680e-01 0.000000e+00 5.000000e-04 1.078380e+05 3.813240e+01 -5.537620e-02 0.000000e+00 2.899710e+02 1.171010e-03 2.176310e-09 1.187820e-09 7.690980e-01 2.297310e-01 5.000000e+00 0.000000e+00 0.000000e+00
2.000000e+00 2.590000e+02 8.800000e+01 1.281350e-01 1.400280e-03 5.000000e-04 1.078400e+05 3.818290e+01 -3.830080e-01 0.000000e+00 2.904230e+02 4.061860e-03 9.081190e-09 4.956480e-09 7.668720e-01 2.290660e-01 8.000000e+00 0.000000e+00 0.000000e+00
2.000000e+00 1.690000e+02 1.274000e+03 1.186530e-01 2.488270e-02 5.000000e-04 1.081210e+05 2.667630e+01 2.670680e+00 0.000000e+00 2.906280e+02 1.941210e-01 2.152830e-07 1.175010e-07 6.205270e-01 1.853520e-01 9.000000e+00 0.000000e+00 0.000000e+00
2.000000e+00 2.600000e+02 1.390000e+02 1.278310e-01 2.703170e-03 5.000000e-04 1.078760e+05 3.811380e+01 -6.558250e-01 0.000000e+00 2.923640e+02 1.313580e-02 4.193140e-08 2.288600e-08 7.598850e-01 2.269790e-01 8.000000e+00 0.000000e+00 0.000000e+00
2.000000e+00 2.640000e+02 5.020000e+02 1.267920e-01 9.227240e-03 5.000000e-04 1.079590e+05 3.670570e+01 -2.253150e+00 0.000000e+00 3.098080e+02 1.451800e-01 3.087210e-05 1.684990e-05 6.582050e-01 1.965680e-01 1.100000e+01 0.000000e+00 0.000000e+00
2.000000e+00 2.610000e+02 2.420000e+02 1.268200e-01 4.821690e-03 5.000000e-04 1.079240e+05 3.807490e+01 -1.510360e+00 0.000000e+00 3.045970e+02 5.620740e-02 8.305650e-07 4.533190e-07 7.267210e-01 2.170710e-01 1.100000e+01 0.000000e+00 0.000000e+00
2.000000e+00 8.600000e+01 1.269000e+03 1.134210e-01 2.497150e-02 5.000000e-04 1.080470e+05 2.567110e+01 6.787130e+00 0.000000e+00 2.947310e+02 2.436560e-01 2.487420e-05 1.357620e-05 5.823780e-01 1.739270e-01 9.000000e+00 0.000000e+00 0.000000e+00
2.000000e+00 3.080000e+02 5.020000e+02 1.260420e-01 9.057220e-03 5.000000e-04 1.079590e+05 3.670570e+01 -2.253150e+00 0.000000e+00 3.098080e+02 1.451800e-01 3.087210e-05 1.684990e-05 6.582050e-01 1.965680e-01 1.100000e+01 0.000000e+00 0.000000e+00
2.000000e+00 2.970000e+02 8.400000e+01 1.247850e-01 1.055750e-03 5.000000e-04 1.079350e+05 3.751670e+01 -3.765170e-01 0.000000e+00 2.903940e+02 3.193490e-03 5.781290e-08 3.155400e-08 7.675410e-01 2.292650e-01 6.000000e+00 0.000000e+00 0.000000e+00
2.000000e+00 2.980000e+02 8.400000e+01 1.247420e-01 1.632570e-03 5.000000e-04 1.079350e+05 3.751670e+01 -3.765170e-01 0.000000e+00 2.903940e+02 3.193490e-03 5.781290e-08 3.155400e-08 7.675410e-01 2.292650e-01 6.000000e+00 0.000000e+00 0.000000e+00
2.000000e+00 2.960000e+02 3.200000e+01 1.247820e-01 0.000000e+00 5.000000e-04 1.079300e+05 3.754340e+01 -7.210710e-02 0.000000e+00 2.900660e+02 1.112630e-03 1.393440e-08 7.605360e-09 7.691430e-01 2.297440e-01 5.000000e+00 0.000000e+00 0.000000e+00
2.000000e+00 3.000000e+02 1.880000e+02 1.244330e-01 3.722030e-03 5.000000e-04 1.079510e+05 3.735640e+01 -8.275080e-01 0.000000e+00 2.960240e+02 2.218710e-02 8.601900e-07 4.694880e-07 7.529160e-01 2.248960e-01 5.000000e+00 0.000000e+00 0.000000e+00
2.000000e+00 2.990000e+02 1.360000e+02 1.245790e-01 2.755900e-03 5.000000e-04 1.079420e+05 3.742170e+01 -5.087740e-01 0.000000e+00 2.919170e+02 9.148390e-03 2.462800e-07 1.344190e-07 7.629560e-01 2.278950e-01 5.000000e+00 0.000000e+00 0.000000e+00
2.000000e+00 3.010000e+02 2.400000e+02 1.243010e-01 4.470580e-03 5.000000e-04 1.079550e+05 3.737100e+01 -9.341240e-01 0.000000e+00 3.027440e+02 4.284400e-02 3.108660e-06 1.696700e-06 7.370100e-01 2.201410e-01 5.000000e+00 0.000000e+00 0.000000e+00
2.000000e+00 3.020000e+02 2.920000e+02 1.242670e-01 5.078720e-03 5.000000e-04 1.079630e+05 3.798070e+01 -1.324990e+00 0.000000e+00 3.122580e+02 6.700520e-02 8.459580e-06 4.617210e-06 7.184050e-01 2.145770e-01 5.000000e+00 0.000000e+00 0.000000e+00
2.000000e+00 3.030000e+02 2.920000e+02 1.240820e-01 5.256910e-03 5.000000e-04 1.079630e+05 3.798070e+01 -1.324990e+00 0.000000e+00 3.122580e+02 6.700520e-02 8.459580e-06 4.617210e-06 7.184050e-01 2.145770e-01 5.000000e+00 0.000000e+00 0.000000e+00
2.000000e+00 7.700000e+01 1.325000e+03 1.170370e-01 2.569290e-02 5.000000e-04 1.081130e+05 2.700640e+01 2.629170e+00 0.000000e+00 2.909940e+02 1.935270e-01 3.256180e-07 1.777210e-07 6.209840e-01 1.854890e-01 5.000000e+00 0.000000e+00 0.000000e+00
2.000000e+00 3.070000e+02 3.960000e+02 1.249380e-01 7.143610e-03 5.000000e-04 1.079910e+05 3.965510e+01 -2.656190e+00 0.000000e+00 3.270950e+02 9.913650e-02 6.936430e-05 3.785880e-05 6.936480e-01 2.071080e-01 6.000000e+00 0.000000e+00 0.000000e+00
2.000000e+00 3.040000e+02 2.910000e+02 1.232370e-01 5.161530e-03 5.000000e-04 1.079710e+05 3.755890e+01 -8.309690e-01 0.000000e+00 3.107630e+02 5.507680e-02 1.581480e-05 8.631650e-06 7.275870e-01 2.173110e-01 6.000000e+00 0.000000e+00 0.000000e+00
2.000000e+00 3.400000e+02 5.000000e+02 1.241930e-01 9.871340e-03 5.000000e-04 1.080270e+05 3.851700e+01 -2.978480e+00 0.000000e+00 3.181010e+02 1.366580e-01 1.599320e-04 8.729010e-05 6.647330e-01 1.983610e-01 6.000000e+00 0.000000e+00 0.000000e+00
2.000000e+00 7.600000e+01 1.376000e+03 1.162870e-01 2.600740e-02 5.000000e-04 1.080850e+05 2.733100e+01 2.923060e+00 0.000000e+00 2.913210e+02 1.896970e-01 4.147410e-07 2.263640e-07 6.239330e-01 1.863690e-01 6.000000e+00 0.000000e+00 0.000000e+00
2.000000e+00 3.390000e+02 5.510000e+02 1.230920e-01 1.071570e-02 5.000000e-04 1.080510e+05 3.766950e+01 -2.520040e+00 0.000000e+00 3.157590e+02 1.401220e-01 3.691560e-04 2.014840e-04 6.620120e-01 1.972950e-01 6.000000e+00 0.000000e+00 0.000000e+00
2.000000e+00 3.410000e+02 7.050000e+02 1.219880e-01 1.314170e-02 5.000000e-04 1.081010e+05 3.566100e+01 -1.484330e-02 0.000000e+00 3.095520e+02 1.571090e-01 2.385580e-03 1.302040e-03 6.484140e-01 1.907900e-01 1.100000e+01 0.000000e+00 0.000000e+00
2.000000e+00 1.650000e+02 1.426000e+03 1.145430e-01 2.769570e-02 5.000000e-04 1.080050e+05 2.788720e+01 3.933700e+00 0.000000e+00 2.927640e+02 2.047880e-01 1.272400e-06 6.944730e-07 6.123130e-01 1.828970e-01 5.000000e+00 0.000000e+00 0.000000e+00
2.000000e+00 3.340000e+02 2.900000e+01 1.213720e-01 0.000000e+00 5.000000e-04 1.079660e+05 3.723290e+01 9.185530e-03 0.000000e+00 2.900920e+02 1.237680e-03 7.975510e-08 4.353000e-08 7.690470e-01 2.297150e-01 6.000000e+00 0.000000e+00 0.000000e+00
2.000000e+00 3.350000e+02 1.330000e+02 1.213020e-01 2.254040e-03 5.000000e-04 1.079670e+05 3.719070e+01 -2.284740e-01 0.000000e+00 2.913300e+02 8.183090e-03 7.366860e-07 4.020800e-07 7.636990e-01 2.281170e-01 9.000000e+00 0.000000e+00 0.000000e+00
2.000000e+00 3.360000e+02 2.370000e+02 1.211640e-01 4.122060e-03 5.000000e-04 1.079880e+05 3.723100e+01 -2.604990e-01 0.000000e+00 2.989360e+02 3.225340e-02 1.364130e-05 7.445360e-06 7.451620e-01 2.225630e-01 5.000000e+00 0.000000e+00 0.000000e+00
2.000000e+00 2.040000e+02 1.477000e+03 1.134820e-01 2.877800e-02 5.000000e-04 1.079110e+05 2.685430e+01 5.073480e+00 0.000000e+00 2.925690e+02 1.809110e-01 9.074630e-07 4.952900e-07 6.306980e-01 1.883890e-01 7.000000e+00 0.000000e+00 0.000000e+00
2.000000e+00 8.100000e+01 1.373000e+03 1.132330e-01 2.695530e-02 5.000000e-04 1.080000e+05 2.786390e+01 5.483420e+00 0.000000e+00 2.946210e+02 2.382150e-01 4.979210e-06 2.717640e-06 5.865730e-01 1.752040e-01 9.000000e+00 0.000000e+00 0.000000e+00
2.000000e+00 2.030000e+02 1.477000e+03 1.134460e-01 2.846480e-02 5.000000e-04 1.079110e+05 2.685430e+01 5.073480e+00 0.000000e+00 2.925690e+02 1.809110e-01 9.074630e-07 4.952900e-07 6.306980e-01 1.883890e-01 7.000000e+00 0.000000e+00 0.000000e+00
2.000000e+00 3.060000e+02 4.960000e+02 1.203530e-01 9.475470e-03 5.000000e-04 1.080720e+05 3.841930e+01 -7.020350e-01 0.000000e+00 3.376760e+02 9.951120e-02 1.273830e-03 6.952490e-04 6.930510e-01 2.054690e-01 9.000000e+00 0.000000e+00 0.000000e+00
2.000000e+00 3.050000e+02 4.960000e+02 1.203710e-01 9.836340e-03 5.000000e-04 1.080720e+05 3.841930e+01 -7.020350e-01 0.000000e+00 3.376760e+02 9.951120e-02 1.273830e-03 6.952490e-04 6.930510e-01 2.054690e-01 9.000000e+00 0.000000e+00 0.000000e+00
2.000000e+00 3.380000e+02 7.560000e+02 1.202810e-01 1.423670e-02 5.000000e-04 1.080830e+05 3.593040e+01 1.053410e+00 0.000000e+00 3.079680e+02 1.624230e-01 3.073920e-03 1.677740e-03 6.441450e-01 1.886810e-01 9.000000e+00 0.000000e+00 0.000000e+00
2.000000e+00 3.370000e+02 4.430000e+02 1.195160e-01 8.890240e-03 5.000000e-04 1.080770e+05 3.767640e+01 3.244940e-01 0.000000e+00 3.378020e+02 8.946670e-02 1.410510e-03 7.698500e-04 7.007500e-01 2.076030e-01 6.000000e+00 0.000000e+00 0.000000e+00
2.000000e+00 3.750000e+02 2.870000e+02 1.198120e-01 5.222240e-03 5.000000e-04 1.080550e+05 3.793880e+01 -2.366140e-01 0.000000e+00 3.058390e+02 5.216670e-02 3.706140e-04 2.022800e-04 7.297380e-01 2.175220e-01 6.000000e+00 0.000000e+00 0.000000e+00
2.000000e+00 3.770000e+02 7.040000e+02 1.202200e-01 1.321420e-02 5.000000e-04 1.080860e+05 3.734610e+01 -6.641780e-02 0.000000e+00 3.149190e+02 1.496710e-01 3.748450e-03 2.045890e-03 6.537900e-01 1.907440e-01 7.000000e+00 0.000000e+00 0.000000e+00
2.000000e+00 3.730000e+02 7.900000e+01 1.194600e-01 1.637660e-03 5.000000e-04 1.080080e+05 3.719670e+01 -3.209230e-01 0.000000e+00 2.902600e+02 3.740930e-03 9.661400e-07 5.273150e-07 7.671190e-01 2.291380e-01 6.000000e+00 0.000000e+00 0.000000e+00
2.000000e+00 3.740000e+02 1.830000e+02 1.193560e-01 3.090750e-03 5.000000e-04 1.080280e+05 3.729000e+01 -5.086480e-01 0.000000e+00 2.931700e+02 1.893600e-02 2.087460e-05 1.139330e-05 7.554150e-01 2.256170e-01 5.000000e+00 0.000000e+00 0.000000e+00
2.000000e+00 3.720000e+02 2.700000e+01 1.194240e-01 0.000000e+00 5.000000e-04 1.080030e+05 3.713330e+01 2.778100e-03 0.000000e+00 2.901060e+02 1.619910e-03 2.901470e-07 1.583610e-07 7.687530e-01 2.296270e-01 5.000000e+00 0.000000e+00 0.000000e+00
2.000000e+00 3.760000e+02 3.910000e+02 1.190980e-01 7.560650e-03 5.000000e-04 1.080690e+05 3.779540e+01 3.166450e-01 0.000000e+00 3.309970e+02 8.111730e-02 1.219410e-03 6.655500e-04 7.072280e-01 2.097700e-01 8.000000e+00 0.000000e+00 0.000000e+00
2.000000e+00 4.180000e+02 6.520000e+02 1.201910e-01 1.218770e-02 5.000000e-04 1.080810e+05 3.818040e+01 -9.075380e-01 0.000000e+00 3.217040e+02 1.354510e-01 3.196640e-03 1.744710e-03 6.648820e-01 1.947260e-01 8.000000e+00 0.000000e+00 0.000000e+00
2.000000e+00 4.190000e+02 7.550000e+02 1.191190e-01 1.473120e-02 5.000000e-04 1.080980e+05 3.770100e+01 7.816030e-01 0.000000e+00 3.176060e+02 1.480680e-01 7.217200e-03 3.939120e-03 6.541320e-01 1.866440e-01 6.000000e+00 0.000000e+00 0.000000e+00
2.000000e+00 3.840000e+02 8.060000e+02 1.182780e-01 1.569320e-02 5.000000e-04 1.081050e+05 3.688100e+01 1.628100e+00 0.000000e+00 3.153490e+02 1.529890e-01 9.078730e-03 4.955130e-03 6.498640e-01 1.831140e-01 6.000000e+00 0.000000e+00 0.000000e+00
2.000000e+00 2.050000e+02 1.526000e+03 1.106980e-01 2.912730e-02 5.000000e-04 1.078560e+05 2.446550e+01 7.253790e+00 0.000000e+00 2.922800e+02 1.569090e-01 9.535370e-07 5.204370e-07 6.491800e-01 1.939100e-01 8.000000e+00 0.000000e+00 0.000000e+00
2.000000e+00 2.020000e+02 1.422000e+03 1.106250e-01 2.767210e-02 5.000000e-04 1.078310e+05 2.536270e+01 8.790840e+00 0.000000e+00 2.958120e+02 2.173790e-01 1.823970e-05 9.955170e-06 6.026130e-01 1.799800e-01 5.000000e+00 0.000000e+00 0.000000e+00
2.000000e+00 1.640000e+02 1.265000e+03 1.098750e-01 2.427910e-02 5.000000e-04 1.078640e+05 2.387830e+01 8.634990e+00 0.000000e+00 2.987010e+02 2.044350e-01 6.173280e-04 3.369350e-04 6.124270e-01 1.821840e-01 9.000000e+00 0.000000e+00 0.000000e+00
2.000000e+00 4.170000e+02 3.890000e+02 1.175620e-01 7.850860e-03 5.000000e-04 1.080780e+05 3.841550e+01 2.688880e-01 0.000000e+00 3.313520e+02 8.112410e-02 5.363420e-03 2.927330e-03 7.061580e-01 2.044280e-01 9.000000e+00 0.000000e+00 0.000000e+00
2.000000e+00 4.160000e+02 3.890000e+02 1.171730e-01 7.804090e-03 5.000000e-04 1.080780e+05 3.841550e+01 2.688880e-01 0.000000e+00 3.313520e+02 8.112410e-02 5.363420e-03 2.927330e-03 7.061580e-01 2.044280e-01 9.000000e+00 0.000000e+00 0.000000e+00
2.000000e+00 4.150000e+02 4.930000e+02 1.174680e-01 9.618520e-03 5.000000e-04 1.080430e+05 3.853130e+01 1.020660e+00 0.000000e+00 3.412370e+02 9.362990e-02 5.498350e-03 3.000980e-03 6.964920e-01 2.013790e-01 8.000000e+00 0.000000e+00 0.000000e+00
2.000000e+00 3.780000e+02 1.213000e+03 1.098370e-01 2.306080e-02 5.000000e-04 1.079210e+05 2.437480e+01 8.192520e+00 0.000000e+00 3.018560e+02 1.866610e-01 1.487060e-03 8.116340e-04 6.258900e-01 1.851510e-01 9.000000e+00 0.000000e+00 0.000000e+00
2.000000e+00 4.530000e+02 8.040000e+02 1.169100e-01 1.542530e-02 5.000000e-04 1.082170e+05 3.901160e+01 2.199820e+00 0.000000e+00 3.490480e+02 1.306930e-01 2.528310e-02 1.379940e-02 6.628610e-01 1.673640e-01 1.100000e+01 0.000000e+00 0.000000e+00
2.000000e+00 2.010000e+02 1.368000e+03 1.088980e-01 2.655920e-02 5.000000e-04 1.078150e+05 2.460090e+01 7.448960e+00 0.000000e+00 2.977890e+02 1.958230e-01 1.026480e-04 5.602470e-05 6.191890e-01 1.848290e-01 9.000000e+00 0.000000e+00 0.000000e+00
2.000000e+00 4.540000e+02 9.070000e+02 1.155020e-01 1.719180e-02 5.000000e-04 1.082090e+05 3.359120e+01 3.614770e+00 0.000000e+00 3.144210e+02 1.591360e-01 1.197120e-02 6.533840e-03 6.443860e-01 1.779730e-01 6.000000e+00 0.000000e+00 0.000000e+00
2.000000e+00 3.420000e+02 1.264000e+03 1.084050e-01 2.450120e-02 5.000000e-04 1.078700e+05 2.415520e+01 7.265200e+00 0.000000e+00 3.004100e+02 1.929850e-01 8.929270e-04 4.873560e-04 6.211720e-01 1.844620e-01 9.000000e+00 0.000000e+00 0.000000e+00
2.000000e+00 4.140000e+02 6.490000e+02 1.171960e-01 1.277430e-02 5.000000e-04 1.080770e+05 3.922380e+01 2.062750e+00 0.000000e+00 3.532020e+02 1.058720e-01 1.443170e-02 7.876770e-03 6.847670e-01 1.870520e-01 8.000000e+00 0.000000e+00 0.000000e+00
2.000000e+00 4.210000e+02 1.161000e+03 1.094160e-01 2.279230e-02 5.000000e-04 1.079690e+05 2.584170e+01 7.615400e+00 0.000000e+00 3.050850e+02 1.797610e-01 2.675720e-03 1.460400e-03 6.308970e-01 1.852060e-01 6.000000e+00 0.000000e+00 0.000000e+00
2.000000e+00 3.090000e+02 1.161000e+03 1.097870e-01 2.230460e-02 5.000000e-04 1.079690e+05 2.584170e+01 7.615400e+00 0.000000e+00 3.050850e+02 1.797610e-01 2.675720e-03 1.460400e-03 6.308970e-01 1.852060e-01 6.000000e+00 0.000000e+00 0.000000e+00
2.000000e+00 4.520000e+02 8.040000e+02 1.163590e-01 1.517770e-02 5.000000e-04 1.082170e+05 3.901160e+01 2.199820e+00 0.000000e+00 3.490480e+02 1.306930e-01 2.528310e-02 1.379940e-02 6.628610e-01 1.673640e-01 1.100000e+01 0.000000e+00 0.000000e+00
2.000000e+00 4.100000e+02 2.300000e+01 1.152520e-01 0.000000e+00 5.000000e-04 1.081620e+05 3.677450e+01 -2.042830e-01 0.000000e+00 2.901360e+02 3.327020e-03 3.056950e-06 1.668470e-06 7.674380e-01 2.292300e-01 6.000000e+00 0.000000e+00 0.000000e+00
2.000000e+00 4.110000e+02 7.500000e+01 1.152130e-01 1.636340e-03 5.000000e-04 1.081390e+05 3.692780e+01 -5.675590e-01 0.000000e+00 2.902260e+02 9.665260e-03 2.478920e-05 1.352980e-05 7.625530e-01 2.277440e-01 5.000000e+00 0.000000e+00 0.000000e+00
2.000000e+00 4.120000e+02 1.270000e+02 1.151120e-01 2.929670e-03 5.000000e-04 1.080980e+05 3.684250e+01 -8.613290e-01 0.000000e+00 2.905630e+02 2.103350e-02 1.568910e-04 8.563030e-05 7.537660e-01 2.249580e-01 8.000000e+00 0.000000e+00 0.000000e+00
2.000000e+00 4.550000e+02 1.059000e+03 1.114370e-01 2.055940e-02 5.000000e-04 1.080120e+05 2.794330e+01 7.516510e+00 0.000000e+00 3.088620e+02 1.735370e-01 5.755000e-03 3.141060e-03 6.348970e-01 1.826700e-01 6.000000e+00 0.000000e+00 0.000000e+00
2.000000e+00 4.130000e+02 4.910000e+02 1.151170e-01 9.191670e-03 5.000000e-04 1.081110e+05 4.038150e+01 2.237350e+00 0.000000e+00 3.445840e+02 9.280460e-02 1.317900e-02 7.193050e-03 6.951510e-01 1.916720e-01 9.000000e+00 0.000000e+00 0.000000e+00
2.000000e+00 4.510000e+02 6.990000e+02 1.155220e-01 1.311350e-02 5.000000e-04 1.081110e+05 4.044240e+01 4.230860e+00 0.000000e+00 3.984380e+02 1.156820e-01 3.412700e-02 1.862640e-02 6.721440e-01 1.594210e-01 6.000000e+00 0.000000e+00 0.000000e+00