# PROC_ID	PARCEL_ID	CellI	X	Y	Z	p	Ux	Uy	Uz	T	C3H8	CO2	H2O	N2	O2
2	61	399	0.127957	0.00782123	0.0005	107916	39.8493	-2.33561	0	316.813	0.115995	9.30496e-06	5.07861e-06	0.680683	0.203308
2	100	655	0.123128	0.0121033	0.0005	108087	34.4448	-0.716309	0	300.811	0.168385	0.000459195	0.000250627	0.640226	0.190679
2	290	905	0.113117	0.0178933	0.0005	108038	34.0489	4.76886	0	344.947	0.142403	0.025973	0.014176	0.653666	0.163782
2	251	438	0.114415	0.00851702	0.0005	108336	38.7389	2.48227	0	388.213	0.087082	0.039185	0.021387	0.692868	0.159478
2	253	1007	0.111471	0.019439	0.0005	107993	31.001	6.2124	0	319.696	0.164965	0.0122336	0.00667706	0.63983	0.176294
2	101	1312	0.104879	0.0256341	0.0005	107893	23.5222	5.18618	0	301.213	0.177174	0.000993002	0.000541976	0.633321	0.18797
2	214	854	0.114395	0.0160756	0.0005	108163	36.4598	5.67018	0	361.969	0.135385	0.0326075	0.0177971	0.657363	0.156848
2	138	1261	0.105253	0.0243078	0.0005	107890	24.0764	6.45653	0	304.068	0.182372	0.00220004	0.00120078	0.629009	0.185219
2	137	1312	0.104433	0.0250155	0.0005	107893	23.5222	5.18618	0	301.213	0.177174	0.000993002	0.000541976	0.633321	0.18797
2	215	903	0.111014	0.0171452	0.0005	107927	33.8318	4.83811	0	389.537	0.150221	0.0465966	0.0254323	0.642338	0.135412
2	177	1260	0.104108	0.0247708	0.0005	107862	23.619	6.13241	0	306.375	0.183596	0.0041184	0.00224781	0.627573	0.182465
2	176	1259	0.103576	0.0249848	0.0005	107853	23.0754	5.71711	0	311.353	0.18799	0.00825705	0.00450666	0.623124	0.176122
2	213	850	0.110041	0.0169569	0.0005	108014	38.7431	0.609433	0	501.697	0.162481	0.0802971	0.0438258	0.624226	0.0891699
2	252	798	0.110963	0.0158621	0.0005	107935	47.107	-3.73104	0	672.192	0.162091	0.102307	0.0558389	0.618862	0.0609002
2	99	1055	0.107374	0.0201838	0.0005	107979	31.6793	4.83582	0	370.124	0.19814	0.0390132	0.0212933	0.607394	0.13416
2	289	593	0.113175	0.0110664	0.0005	108490	46.7757	8.96268	0	652.181	0.136065	0.091949	0.0501854	0.641569	0.0802313
2	367	436	0.112828	0.0081108	0.0005	107644	47.6	-2.05404	0	720.624	0.0854326	0.117233	0.0639853	0.67406	0.0592891
2	180	1156	0.104644	0.0220678	0.0005	108041	27.9225	7.83177	0	367.717	0.200043	0.0398857	0.0217695	0.605704	0.132598
2	328	280	0.112675	0.00597554	0.0005	108085	42.1767	-7.07696	0	651.282	0.0629077	0.109344	0.0596793	0.693443	0.0746262
2	329	693	0.109756	0.0132813	0.0005	108092	62.7174	-8.78805	0	1236.5	0.198071	0.142155	0.0775875	0.580915	0.00127177
2	256	1152	0.100583	0.0226531	0.0005	107977	39.5364	-0.464836	0	577.484	0.164703	0.0989745	0.0540199	0.617715	0.0645882
2	327	164	0.100456	0.00353843	0.0005	108150	37.1514	-2.16082	0	529.278	0.0323119	0.0695299	0.0379491	0.727241	0.132968
2	366	164	0.100073	0.00306377	0.0005	108150	37.1514	-2.16082	0	529.278	0.0323119	0.0695299	0.0379491	0.727241	0.132968
2	64	1252	0.096425	0.0247648	0.0005	108177	27.3666	1.78791	0	459.738	0.171628	0.0665887	0.0363439	0.620712	0.104727
2	103	1874	0.0945262	0.0361819	0.0005	107990	17.4411	-1.84532	0	290.198	0.1839	1.37077e-05	7.48163e-06	0.628396	0.187684
2	441	624	0.092615	0.0126923	0.0005	108030	63.0381	3.78613	0	1486.92	0.275558	0.129306	0.0705746	0.524562	3.94353e-20
2	63	2074	0.0869492	0.0397032	0.0005	108357	21.7738	16.5221	0	410.326	0.229969	0.0527571	0.0287946	0.579238	0.109241
2	62	2284	0.0884727	0.0432047	0.0005	108027	26.2715	9.43729	0	315.32	0.32096	0.00644526	0.0035178	0.521182	0.147895
2	65	2336	0.0888265	0.0441958	0.0005	107991	26.3926	8.68406	0	314.753	0.32678	0.00500183	0.00272998	0.517078	0.148409
2	102	2434	0.0828565	0.0462713	0.0005	107837	16.5747	2.37934	0	316.529	0.326682	0.0012861	0.000701949	0.518124	0.153206
2	66	2178	0.0863752	0.0413157	0.0005	108216	21.9505	13.4912	0	327.723	0.296608	0.01913	0.0104411	0.536626	0.137195
2	104	2509	0.0534165	0.0487404	0.0005	107855	-19.4428	0.590563	0	324.761	0.159715	0.000562228	0.000306862	0.646877	0.19254
2	141	2515	0.0591009	0.048989	0.0005	108106	-11.2978	3.68077	0	330.738	0.144912	0.000617167	0.000336847	0.65826	0.195874
2	140	2524	0.068747	0.0486782	0.0005	107884	9.50959	1.57186	0	322.723	0.185168	0.00108486	0.000592113	0.627144	0.186011
2	139	2528	0.0727151	0.0482746	0.0005	108345	14.413	1.22525	0	311.552	0.209672	0.000693866	0.000378709	0.608378	0.180877
2	179	2531	0.075112	0.0482645	0.0005	108362	15.7888	1.08789	0	305.31	0.207846	0.000326609	0.000178262	0.609879	0.18177
2	178	2449	0.0457047	0.0474191	0.0005	107746	-8.10475	-4.03251	0	322.746	0.165652	0.000330096	0.000180165	0.642366	0.191472
2	175	2230	0.0863392	0.0425738	0.0005	108170	23.685	11.5701	0	325.446	0.310395	0.0139158	0.0075952	0.527365	0.140728
2	216	2336	0.0882222	0.0449737	0.0005	107991	26.3926	8.68406	0	314.753	0.32678	0.00500183	0.00272998	0.517078	0.148409
2	142	2452	0.048324	0.0473286	0.0005	107616	-16.7216	-4.04315	0	332.558	0.166897	0.000596923	0.000325798	0.641337	0.190843
2	217	1970	0.0864252	0.0375659	0.0005	108246	21.0173	12.1104	0	489.941	0.206819	0.0662124	0.0361385	0.593644	0.0971864
2	254	1711	0.0872448	0.0323441	0.0005	108205	21.7865	4.59306	0	536.142	0.191373	0.0681165	0.0371777	0.605088	0.0982448
2	291	2330	0.0821806	0.0441325	0.0005	107754	20.7926	2.91782	0	338.495	0.278895	0.00824616	0.00450072	0.553103	0.155255
2	255	2329	0.0811256	0.0448357	0.0005	107725	20.9105	2.18207	0	346.269	0.254364	0.00930025	0.00507604	0.571717	0.159543
2	218	2377	0.0777905	0.0458924	0.0005	108144	19.5547	1.06987	0	358.738	0.210702	0.00831476	0.00453816	0.605602	0.170843
2	292	2377	0.0777099	0.0458048	0.0005	108144	19.5547	1.06987	0	358.738	0.210702	0.00831476	0.00453816	0.605602	0.170843
2	293	2428	0.0762623	0.0462179	0.0005	108269	17.2739	1.59884	0	330.834	0.263893	0.00297192	0.00162206	0.566036	0.165477
2	403	304	0.084863	0.00508799	0.0005	107975	63.3581	3.07703	0	1900	0.0110349	0.176346	0.0962488	0.716128	0.000242763
2	330	662	0.078871	0.012929	0.0005	107860	57.5227	1.59617	0	1482.83	0.234255	0.136675	0.0745966	0.554473	8.39936e-25
2	294	661	0.0779528	0.0129944	0.0005	107858	57.5806	1.30362	0	1482.49	0.232442	0.136999	0.0747738	0.555785	4.27372e-25
2	442	305	0.0853007	0.00564479	0.0005	107974	63.1667	2.50566	0	1900	0.00949187	0.176628	0.0964031	0.717246	0.000230838
2	368	660	0.0766925	0.0125475	0.0005	107852	57.7892	1.01429	0	1483.89	0.231069	0.137245	0.0749079	0.556778	1.14282e-25
2	331	659	0.0755206	0.0125403	0.0005	107857	57.9029	0.622116	0	1487.08	0.228665	0.137675	0.0751426	0.558517	2.81383e-26
2	369	659	0.0754289	0.0123436	0.0005	107857	57.9029	0.622116	0	1487.08	0.228665	0.137675	0.0751426	0.558517	2.81383e-26
2	443	557	0.0776376	0.0109084	0.0005	107848	63.2229	1.40971	0	1580.97	0.20783	0.141396	0.0771731	0.573601	1.04975e-19
2	518	442	0.0667595	0.0085212	0.0005	108034	63.2802	-3.40675	0	1618.95	0.174768	0.147293	0.0803918	0.597548	1.19392e-13
2	517	439	0.0633451	0.00894997	0.0005	108081	61.316	-4.6105	0	1639.77	0.171984	0.147789	0.0806629	0.599563	4.90357e-13
2	406	738	0.0502841	0.0144902	0.0005	108418	26.9268	-12.8165	0	1528.77	0.241293	0.13543	0.0739174	0.549359	3.94665e-10
2	332	942	0.0460951	0.0188239	0.0005	108579	10.7675	-5.75996	0	1524.39	0.197266	0.143	0.0780489	0.581321	0.000363646
2	556	634	0.0501339	0.0123129	0.0005	108399	32.6237	-12.7014	0	1530.54	0.262894	0.131584	0.071818	0.533704	9.13463e-14
2	479	472	0.0446443	0.00986171	0.0005	108517	25.9326	-0.0995727	0	1900	0.0324927	0.172691	0.094254	0.700562	2.99026e-09
2	519	1093	0.0418247	0.0210959	0.0005	108500	15.3234	2.09759	0	987.371	0.341834	0.0990898	0.0540828	0.48125	0.0237433
2	60	2473	-0.0239999	0.012	0.0005	106141	11.8125	0.0896165	0	287.533	1	2.60729e-39	1.42305e-39	1.11022e-16	4.56267e-28
2	67	2573	-0.0239999	0.017	0.0005	106116	11.7309	-0.0108321	0	287.531	1	7.3064e-40	3.9878e-40	0	1.2273e-28
2	98	2473	-0.0239999	0.012	0.0005	106141	11.8125	0.0896165	0	287.533	1	2.60729e-39	1.42305e-39	1.11022e-16	4.56267e-28
2	105	2573	-0.0239999	0.017	0.0005	106116	11.7309	-0.0108321	0	287.531	1	7.3064e-40	3.9878e-40	0	1.2273e-28
2	136	2473	-0.0239999	0.012	0.0005	106141	11.8125	0.0896165	0	287.533	1	2.60729e-39	1.42305e-39	1.11022e-16	4.56267e-28
2	143	2573	-0.0239999	0.017	0.0005	106116	11.7309	-0.0108321	0	287.531	1	7.3064e-40	3.9878e-40	0	1.2273e-28
2	174	2473	-0.0239999	0.012	0.0005	106141	11.8125	0.0896165	0	287.533	1	2.60729e-39	1.42305e-39	1.11022e-16	4.56267e-28
2	181	2573	-0.0239999	0.017	0.0005	106116	11.7309	-0.0108321	0	287.531	1	7.3064e-40	3.9878e-40	0	1.2273e-28
2	212	2473	-0.0239999	0.012	0.0005	106141	11.8125	0.0896165	0	287.533	1	2.60729e-39	1.42305e-39	1.11022e-16	4.56267e-28
2	219	2573	-0.0239999	0.017	0.0005	106116	11.7309	-0.0108321	0	287.531	1	7.3064e-40	3.9878e-40	0	1.2273e-28
2	250	2473	-0.0239999	0.012	0.0005	106141	11.8125	0.0896165	0	287.533	1	2.60729e-39	1.42305e-39	1.11022e-16	4.56267e-28
2	257	2573	-0.0239999	0.017	0.0005	106116	11.7309	-0.0108321	0	287.531	1	7.3064e-40	3.9878e-40	0	1.2273e-28
2	288	2473	-0.0239999	0.012	0.0005	106141	11.8125	0.0896165	0	287.533	1	2.60729e-39	1.42305e-39	1.11022e-16	4.56267e-28
2	295	2573	-0.0239999	0.017	0.0005	106116	11.7309	-0.0108321	0	287.531	1	7.3064e-40	3.9878e-40	0	1.2273e-28
2	326	2473	-0.0239999	0.012	0.0005	106141	11.8125	0.0896165	0	287.533	1	2.60729e-39	1.42305e-39	1.11022e-16	4.56267e-28
2	333	2573	-0.0239999	0.017	0.0005	106116	11.7309	-0.0108321	0	287.531	1	7.3064e-40	3.9878e-40	0	1.2273e-28
2	364	2473	-0.0239999	0.012	0.0005	106141	11.8125	0.0896165	0	287.533	1	2.60729e-39	1.42305e-39	1.11022e-16	4.56267e-28
2	365	1508	0.0283924	0.0375563	0.0005	108303	5.02723	7.61984	0	317.14	0.303142	0.00466761	0.00254757	0.53538	0.154263
2	370	1429	0.0291349	0.0352898	0.0005	108437	5.23435	7.38502	0	331.598	0.308171	0.00901279	0.00491914	0.53039	0.147507
2	371	2573	-0.0239999	0.017	0.0005	106116	11.7309	-0.0108321	0	287.531	1	7.3064e-40	3.9878e-40	0	1.2273e-28
2	402	2473	-0.0239999	0.012	0.0005	106141	11.8125	0.0896165	0	287.533	1	2.60729e-39	1.42305e-39	1.11022e-16	4.56267e-28
2	404	1508	0.0286494	0.0372962	0.0005	108303	5.02723	7.61984	0	317.14	0.303142	0.00466761	0.00254757	0.53538	0.154263
2	405	1076	0.0365476	0.0269909	0.0005	108602	11.6731	3.22098	0	658.517	0.399153	0.0600997	0.0328022	0.447172	0.0607733
2	407	998	0.0388495	0.0246234	0.0005	108550	11.9732	3.27686	0	717.426	0.376237	0.0702193	0.0383254	0.462201	0.0530174
2	408	1667	0.0273577	0.0413831	0.0005	108186	5.69402	6.19177	0	296.585	0.178365	0.000727878	0.000397273	0.632471	0.188039
2	409	2573	-0.0239999	0.017	0.0005	106116	11.7309	-0.0108321	0	287.531	1	7.3064e-40	3.9878e-40	0	1.2273e-28
2	440	2473	-0.0239999	0.012	0.0005	106141	11.8125	0.0896165	0	287.533	1	2.60729e-39	1.42305e-39	1.11022e-16	4.56267e-28
2	444	1077	0.0371917	0.0260737	0.0005	108632	11.6417	2.41652	0	412.877	0.257218	0.0268544	0.014657	0.565028	0.136243
2	445	1507	0.0279673	0.0379426	0.0005	108335	3.96553	11.5721	0	373.494	0.425325	0.0123631	0.00674772	0.43932	0.116244
2	446	1507	0.0271365	0.037009	0.0005	108335	3.96553	11.5721	0	373.494	0.425325	0.0123631	0.00674772	0.43932	0.116244
2	447	2573	-0.0239999	0.017	0.0005	106116	11.7309	-0.0108321	0	287.531	1	7.3064e-40	3.9878e-40	0	1.2273e-28
2	478	2473	-0.0239999	0.012	0.0005	106141	11.8125	0.0896165	0	287.533	1	2.60729e-39	1.42305e-39	1.11022e-16	4.56267e-28
2	480	1115	0.0356452	0.027594	0.0005	108619	11.5495	3.2239	0	655.453	0.416212	0.0577967	0.0315452	0.434635	0.0598119
2	481	1389	0.0291266	0.0343577	0.0005	108438	5.0805	8.77284	0	425.056	0.398315	0.0240891	0.0131477	0.457103	0.107346
2	482	1467	0.0279685	0.0365995	0.0005	108349	2.94495	13.739	0	463.443	0.492815	0.0250366	0.0136649	0.384094	0.0843889
2	483	1547	0.027164	0.0381469	0.0005	108251	4.43552	9.66541	0	332.036	0.349374	0.0056028	0.00305798	0.499541	0.142425
2	484	1741	0.0219695	0.0431036	0.0005	108252	-0.479358	13.8077	0	340.873	0.226634	0.00190259	0.00103843	0.595004	0.175421
2	485	2573	-0.0239999	0.017	0.0005	106116	11.7309	-0.0108321	0	287.531	1	7.3064e-40	3.9878e-40	0	1.2273e-28
2	516	2473	-0.0239999	0.012	0.0005	106141	11.8125	0.0896165	0	287.533	1	2.60729e-39	1.42305e-39	1.11022e-16	4.56267e-28
2	520	1192	0.0328251	0.0295732	0.0005	108580	11.0469	7.07815	0	890.528	0.540063	0.0741578	0.040475	0.335065	0.0102398
2	521	1622	0.0221079	0.0406316	0.0005	108179	-3.40569	19.9169	0	410.296	0.310663	0.00441092	0.00240746	0.529657	0.152861
2	522	1228	0.0281062	0.0300451	0.0005	108499	16.2686	10.1265	0	1234.09	0.456283	0.0970493	0.0529691	0.393698	6.38532e-07
2	523	2573	-0.0239999	0.017	0.0005	106116	11.7309	-0.0108321	0	287.531	1	7.3064e-40	3.9878e-40	0	1.2273e-28
2	554	2473	-0.0239999	0.012	0.0005	106141	11.8125	0.0896165	0	287.533	1	2.60729e-39	1.42305e-39	1.11022e-16	4.56267e-28
2	555	349	0.0297884	0.00857475	0.0005	108876	20.1689	5.76609	0	1882.97	0.083212	0.163658	0.0893239	0.663806	4.8243e-09
2	557	1071	0.0310396	0.0263838	0.0005	108544	16.3721	6.49861	0	1168.9	0.519116	0.0858819	0.046874	0.348127	4.24269e-07
2	558	1192	0.0324199	0.0295579	0.0005	108580	11.0469	7.07815	0	890.528	0.540063	0.0741578	0.040475	0.335065	0.0102398
2	559	1348	0.0283775	0.0331898	0.0005	108459	6.84741	13.286	0	782.47	0.522472	0.0597992	0.0326381	0.352318	0.0327734
2	560	1180	0.020198	0.0295282	0.0005	108491	10.592	18.4981	0	384.214	0.342457	0.00621038	0.0033896	0.504713	0.14323
2	561	2573	-0.0239999	0.017	0.0005	106116	11.7309	-0.0108321	0	287.531	1	7.3064e-40	3.9878e-40	0	1.2273e-28
2	592	2473	-0.0239999	0.012	0.0005	106141	11.8125	0.0896165	0	287.533	1	2.60729e-39	1.42305e-39	1.11022e-16	4.56267e-28
2	593	229	0.0297399	0.00563985	0.0005	108850	26.5748	-0.806979	0	649.089	0.0834522	0.0433144	0.0236408	0.694593	0.155
2	594	868	0.0280022	0.0211686	0.0005	108708	19.227	7.21668	0	1351.45	0.49238	0.0906028	0.0494506	0.367567	4.32174e-10
2	595	1139	0.0192788	0.0281787	0.0005	108530	11.9358	19.395	0	460.76	0.397203	0.00575443	0.00314074	0.462675	0.131227
2	596	1140	0.0200392	0.0289707	0.0005	108649	9.0487	17.7166	0	480.557	0.448962	0.0130342	0.00711401	0.42095	0.10994
2	597	1180	0.0200976	0.0292925	0.0005	108491	10.592	18.4981	0	384.214	0.342457	0.00621038	0.0033896	0.504713	0.14323
2	598	897	0.0177826	0.0226746	0.0005	109040	16.3775	6.54316	0	455.139	0.451371	0.00292747	0.0015978	0.421688	0.122416
2	599	2573	-0.0239999	0.017	0.0005	106116	11.7309	-0.0108321	0	287.531	1	7.3064e-40	3.9878e-40	0	1.2273e-28
2	630	2473	-0.0239999	0.012	0.0005	106141	11.8125	0.0896165	0	287.533	1	2.60729e-39	1.42305e-39	1.11022e-16	4.56267e-28
2	631	573	0.0132916	0.0144695	0.0005	109205	20.8737	10.9648	0	755.36	0.561649	0.0125933	0.00687339	0.334291	0.0845923
2	632	514	0.0349083	0.0121981	0.0005	108635	30.7005	4.44447	0	1738.09	0.15862	0.150187	0.0819714	0.609222	7.98942e-15
2	633	788	0.0280253	0.0191826	0.0005	108775	22.0638	6.59133	0	1340.15	0.502703	0.0887656	0.0484479	0.360084	6.17925e-12
2	634	863	0.0237464	0.0211895	0.0005	108966	21.7671	8.18052	0	1126.29	0.613112	0.067314	0.0367397	0.280575	0.002259
2	635	981	0.0210526	0.0249898	0.0005	108939	14.948	12.7406	0	1004.21	0.603575	0.0498926	0.0272312	0.292415	0.0268863
2	636	858	0.0180395	0.0217502	0.0005	109096	18	7.96157	0	535.66	0.530266	0.00896069	0.00489071	0.359376	0.0965074
2	637	2573	-0.0239999	0.017	0.0005	106116	11.7309	-0.0108321	0	287.531	1	7.3064e-40	3.9878e-40	0	1.2273e-28
2	668	2473	-0.0239999	0.012	0.0005	106141	11.8125	0.0896165	0	287.533	1	2.60729e-39	1.42305e-39	1.11022e-16	4.56267e-28
2	669	254	0.014962	0.00621569	0.0005	109487	24.4828	-1.35311	0	379.294	0.189719	0.00659895	0.00360168	0.622219	0.177861
2	670	730	0.0107819	0.018875	0.0005	108834	13.6035	8.27689	0	464.699	0.679652	0.000927621	0.000506292	0.24643	0.0724842
2	671	813	0.0138303	0.0203715	0.0005	108974	11.4772	8.04768	0	523.627	0.479828	0.0124338	0.00678634	0.397341	0.103611
2	672	900	0.0204079	0.022379	0.0005	109055	18.5584	9.52915	0	687.939	0.60414	0.0069467	0.00379148	0.303016	0.0821066
2	673	899	0.0192996	0.0222546	0.0005	109058	17.6946	8.50922	0	598.943	0.58094	0.0040093	0.00218826	0.321637	0.0912258
2	674	848	0.008976	0.0213376	0.0005	108559	17.4007	10.7569	0	306.177	0.268841	2.43099e-07	1.32682e-07	0.562993	0.168166
2	675	2573	-0.0239999	0.017	0.0005	106116	11.7309	-0.0108321	0	287.531	1	7.3064e-40	3.9878e-40	0	1.2273e-28
2	706	2473	-0.0239999	0.012	0.0005	106141	11.8125	0.0896165	0	287.533	1	2.60729e-39	1.42305e-39	1.11022e-16	4.56267e-28
2	707	493	0.0131086	0.0128056	0.0005	109372	23.3768	8.90792	0	823.313	0.437345	0.0279262	0.015242	0.426063	0.0934242
2	708	293	0.0139564	0.00705556	0.0005	109483	21.9845	-5.63168	0	605.775	0.271497	0.0251379	0.0137202	0.554483	0.135162
2	709	532	0.0120148	0.0136283	0.0005	109236	23.3168	6.41177	0	605.436	0.519921	0.00187563	0.00102371	0.369179	0.108001
2	710	609	0.00924523	0.0151851	0.0005	109039	14.7569	4.07572	0	542.115	0.736714	2.90864e-05	1.58753e-05	0.202723	0.060518
2	711	691	0.0111331	0.0170474	0.0005	108962	16.6847	8.67736	0	606.415	0.70222	0.00669589	0.00365459	0.227568	0.0598608
2	712	728	0.008348	0.0182156	0.0005	108668	14.1218	5.10308	0	361.444	0.583188	2.14113e-06	1.16862e-06	0.320945	0.0958638
2	713	2573	-0.0239999	0.017	0.0005	106116	11.7309	-0.0108321	0	287.531	1	7.3064e-40	3.9878e-40	0	1.2273e-28
2	744	2473	-0.0239999	0.012	0.0005	106141	11.8125	0.0896165	0	287.533	1	2.60729e-39	1.42305e-39	1.11022e-16	4.56267e-28
2	745	362	0.00268043	0.00918826	0.0005	109673	14.5971	-8.30513	0	289.614	0.521261	4.03302e-13	2.20121e-13	0.368629	0.11011
2	746	568	0.00833285	0.0148873	0.0005	109089	14.4386	8.05592	0	527.901	0.552067	7.73452e-07	4.22147e-07	0.344908	0.103023
2	747	607	0.00720783	0.0159239	0.0005	108984	10.9552	7.43539	0	462.794	0.708096	8.50555e-08	4.6423e-08	0.224766	0.0671377
2	748	690	0.01018	0.0171142	0.0005	108920	16.8914	7.01609	0	471.943	0.758634	0.000499353	0.000272545	0.185723	0.0548703
2	749	729	0.00945583	0.0182678	0.0005	108734	14.1964	7.41771	0	404.587	0.668766	5.67496e-05	3.09737e-05	0.255036	0.0761104
2	750	603	0.00363398	0.0154457	0.0005	109159	9.80309	3.83662	0	289.638	0.821407	8.02865e-12	4.38201e-12	0.137517	0.0410764
2	751	2573	-0.0239999	0.017	0.0005	106116	11.7309	-0.0108321	0	287.531	1	7.3064e-40	3.9878e-40	0	1.2273e-28
2	782	2473	-0.0239999	0.012	0.0005	106141	11.8125	0.0896165	0	287.533	1	2.60729e-39	1.42305e-39	1.11022e-16	4.56267e-28
2	783	482	0.00239693	0.0120307	0.0005	109365	20.6974	-3.15187	0	289.061	0.928072	2.94327e-13	1.60643e-13	0.0553845	0.0165434
2	784	443	0.0035436	0.0110987	0.0005	109502	11.6476	-11.8625	0	289.97	0.714932	3.28224e-12	1.79143e-12	0.219503	0.0655657
2	785	483	0.0036141	0.0124485	0.0005	109439	15.8082	-5.05925	0	289.938	0.779351	4.5985e-12	2.50984e-12	0.1699	0.0507492
2	786	563	0.00363544	0.0142685	0.0005	109285	8.98175	0.872137	0	289.819	0.820873	9.73315e-12	5.31231e-12	0.137928	0.0411993
2	787	563	0.00346044	0.0147516	0.0005	109285	8.98175	0.872137	0	289.819	0.820873	9.73315e-12	5.31231e-12	0.137928	0.0411993
2	788	641	0.00178963	0.0161577	0.0005	108991	16.1535	8.1582	0	289.071	0.935409	7.73186e-14	4.22002e-14	0.0497351	0.0148559
2	789	2573	-0.0239999	0.017	0.0005	106116	11.7309	-0.0108321	0	287.531	1	7.3064e-40	3.9878e-40	0	1.2273e-28
2	820	2473	-0.0239999	0.012	0.0005	106141	11.8125	0.0896165	0	287.533	1	2.60729e-39	1.42305e-39	1.11022e-16	4.56267e-28
2	821	2450	-0.000540757	0.0127203	0.0005	109030	13.3965	0.552416	0	288.932	0.997045	4.81245e-16	2.62661e-16	0.00227561	0.000679729
2	822	482	0.00223326	0.0126218	0.0005	109365	20.6974	-3.15187	0	289.061	0.928072	2.94327e-13	1.60643e-13	0.0553845	0.0165434
2	823	521	0.00197503	0.0134217	0.0005	109313	13.3494	-1.61219	0	289.009	0.977145	3.41069e-14	1.86154e-14	0.0175981	0.00525656
2	824	561	0.00195275	0.0147994	0.0005	109187	13.4272	5.24737	0	288.991	0.978998	2.73811e-14	1.49445e-14	0.0161712	0.00483035
2	825	601	0.00184146	0.0154854	0.0005	109143	17.1304	4.79337	0	289.007	0.971282	2.84563e-14	1.55313e-14	0.0221126	0.00660507
2	826	2550	-0.00061423	0.0161733	0.0005	108724	18.2597	0.139654	0	288.879	0.997391	2.11581e-15	1.1548e-15	0.00200907	0.000600111
2	827	2573	-0.0239999	0.017	0.0005	106116	11.7309	-0.0108321	0	287.531	1	7.3064e-40	3.9878e-40	0	1.2273e-28
2	858	2473	-0.0239999	0.012	0.0005	106141	11.8125	0.0896165	0	287.533	1	2.60729e-39	1.42305e-39	1.11022e-16	4.56267e-28
2	859	2452	-0.00276403	0.0127913	0.0005	108611	14.3618	0.509318	0	288.836	0.999926	1.25448e-17	6.8469e-18	5.68569e-05	1.69833e-05
2	860	2475	-0.000485239	0.0133978	0.0005	108952	15.6812	1.76647	0	288.899	0.999185	1.28005e-16	6.98644e-17	0.000627249	0.00018736
2	861	2500	-0.000320725	0.0140905	0.0005	108901	17.4768	0.763851	0	288.891	0.999845	1.02052e-16	5.56997e-17	0.000119431	3.5674e-05
2	862	2500	-0.000331816	0.0147796	0.0005	108901	17.4768	0.763851	0	288.891	0.999845	1.02052e-16	5.56997e-17	0.000119431	3.5674e-05
2	863	2525	-0.000552947	0.0154767	0.0005	108867	17.0655	1.82361	0	288.871	0.99933	7.73156e-16	4.21986e-16	0.000515889	0.000154096
2	864	2552	-0.00278907	0.0161803	0.0005	108491	15.7932	0.225808	0	288.816	0.99996	3.38707e-17	1.84865e-17	3.09685e-05	9.25031e-06
2	865	2573	-0.0239999	0.017	0.0005	106116	11.7309	-0.0108321	0	287.531	1	7.3064e-40	3.9878e-40	0	1.2273e-28
2	896	2473	-0.0239999	0.012	0.0005	106141	11.8125	0.0896165	0	287.533	1	2.60729e-39	1.42305e-39	1.11022e-16	4.56267e-28
2	897	2455	-0.00523512	0.0127947	0.0005	108197	14.962	0.2033	0	288.702	1	3.45189e-20	1.88403e-20	1.26953e-07	3.79211e-08
2	898	2478	-0.00326579	0.0134728	0.0005	108471	16.1909	0.806701	0	288.761	0.999998	4.86832e-19	2.65711e-19	1.27722e-06	3.81517e-07
2	899	2503	-0.00305916	0.0141457	0.0005	108447	17.2255	0.316969	0	288.751	1	6.14186e-20	3.3522e-20	8.15659e-08	2.43648e-08
2	900	2503	-0.00306481	0.0148196	0.0005	108447	17.2255	0.316969	0	288.751	1	6.14186e-20	3.3522e-20	8.15659e-08	2.43648e-08
2	901	2528	-0.0032748	0.0155008	0.0005	108412	16.7903	0.350376	0	288.753	0.999999	5.10369e-19	2.78557e-19	3.96563e-07	1.18454e-07
2	902	2555	-0.00525031	0.0161973	0.0005	108163	15.3149	-0.122112	0	288.699	1	3.85988e-20	2.1067e-20	2.5412e-08	7.59059e-09
2	903	2573	-0.0239999	0.017	0.0005	106116	11.7309	-0.0108321	0	287.531	1	7.3064e-40	3.9878e-40	0	1.2273e-28
2	934	2473	-0.0239999	0.012	0.0005	106141	11.8125	0.0896165	0	287.533	1	2.60729e-39	1.42305e-39	1.11022e-16	4.56267e-28
2	935	2457	-0.00760702	0.0127921	0.0005	107718	15.0528	0.113786	0	288.577	1	4.10894e-22	2.24265e-22	1.30964e-09	3.91191e-10
2	936	2480	-0.0058804	0.0134787	0.0005	108189	16.0717	0.121578	0	288.671	1	5.08668e-21	2.77629e-21	1.5028e-08	4.48908e-09
2	937	2505	-0.00573502	0.0141569	0.0005	108181	16.6711	0.142476	0	288.666	1	3.89515e-22	2.12596e-22	5.63314e-10	1.68273e-10
2	938	2505	-0.00573641	0.0148351	0.0005	108181	16.6711	0.142476	0	288.666	1	3.89515e-22	2.12596e-22	5.63314e-10	1.68273e-10
2	939	2530	-0.00588606	0.0155137	0.0005	108170	16.3509	0.166211	0	288.669	1	3.82548e-21	2.08793e-21	2.09026e-09	6.24362e-10
2	940	2557	-0.00760444	0.0162063	0.0005	107747	15.1735	-0.0920468	0	288.582	1	2.77477e-22	1.51446e-22	1.26497e-10	3.77865e-11
2	941	2573	-0.0239999	0.017	0.0005	106116	11.7309	-0.0108321	0	287.531	1	7.3064e-40	3.9878e-40	0	1.2273e-28
2	972	2473	-0.0239999	0.012	0.0005	106141	11.8125	0.0896165	0	287.533	1	2.60729e-39	1.42305e-39	1.11022e-16	4.56267e-28
2	973	2460	-0.0100136	0.0127828	0.0005	106896	15.2621	0.0280562	0	288.367	1	3.15228e-25	1.7205e-25	6.13509e-13	1.83126e-13
2	974	2483	-0.00855105	0.0134733	0.0005	107427	16.4835	0.071959	0	288.48	1	3.59566e-24	1.9625e-24	8.46301e-12	2.52858e-12
2	975	2508	-0.00845437	0.0141571	0.0005	107435	16.4317	0.0394448	0	288.478	1	1.28669e-25	7.02272e-26	2.07945e-13	6.12639e-14
2	976	2508	-0.00845494	0.0148413	0.0005	107435	16.4317	0.0394448	0	288.478	1	1.28669e-25	7.02272e-26	2.07945e-13	6.12639e-14
2	977	2533	-0.00855298	0.0155254	0.0005	107446	16.5042	-0.0406915	0	288.483	1	1.67756e-24	9.15608e-25	5.00489e-13	1.48482e-13
2	978	2560	-0.0100143	0.0162164	0.0005	106866	15.3338	-0.0392866	0	288.361	1	1.24556e-25	6.79823e-26	3.17524e-14	9.46026e-15
2	979	2573	-0.0239999	0.017	0.0005	106116	11.7309	-0.0108321	0	287.531	1	7.3064e-40	3.9878e-40	0	1.2273e-28
2	1010	2473	-0.0239999	0.012	0.0005	106141	11.8125	0.0896165	0	287.533	1	2.60729e-39	1.42305e-39	1.11022e-16	4.56267e-28
2	1011	2462	-0.0125302	0.0127703	0.0005	106614	14.7422	0.024344	0	288.264	1	3.13155e-27	1.70919e-27	8.32667e-15	1.0867e-15
2	1012	2486	-0.0113196	0.0134644	0.0005	106704	15.9744	-0.00660247	0	288.287	1	2.56964e-27	1.4025e-27	6.88338e-15	8.35681e-16
2	1013	2511	-0.0112628	0.0141546	0.0005	106683	16.0075	-0.0513376	0	288.284	1	1.60559e-28	8.76326e-29	8.10463e-15	2.82426e-17
2	1014	2511	-0.0112631	0.0148458	0.0005	106683	16.0075	-0.0513376	0	288.284	1	1.60559e-28	8.76326e-29	8.10463e-15	2.82426e-17
2	1015	2536	-0.0113209	0.0155362	0.0005	106664	16.0299	-0.0697354	0	288.282	1	1.71498e-27	9.36028e-28	6.32827e-15	1.11123e-16
2	1016	2562	-0.0125258	0.0162302	0.0005	106529	14.8015	-0.0675145	0	288.25	1	1.95427e-27	1.06663e-27	6.77236e-15	1.26381e-16
2	1017	2573	-0.0239999	0.017	0.0005	106116	11.7309	-0.0108321	0	287.531	1	7.3064e-40	3.9878e-40	0	1.2273e-28
2	1048	2474	-0.024	0.012	0.0005	106182	11.2203	0.0805059	0	287.639	1	8.34462e-41	4.55446e-41	0	1.60045e-29
2	1049	2464	-0.0149039	0.0127608	0.0005	106568	13.8461	0.0294498	0	288.184	1	3.9622e-29	2.16255e-29	3.21965e-15	8.66243e-18
2	1050	2488	-0.0139523	0.013456	0.0005	106555	15.0732	-0.0367704	0	288.203	1	5.04212e-29	2.75197e-29	3.9968e-15	1.11533e-17
2	1051	2513	-0.0139246	0.0141511	0.0005	106528	15.0461	-0.0859707	0	288.197	1	1.98324e-30	1.08245e-30	4.44089e-15	3.38651e-19
2	1052	2513	-0.0139247	0.0148486	0.0005	106528	15.0461	-0.0859707	0	288.197	1	1.98324e-30	1.08245e-30	4.44089e-15	3.38651e-19
2	1053	2538	-0.0139528	0.0155441	0.0005	106503	15.0966	-0.100358	0	288.195	1	1.56652e-29	8.55e-30	4.55191e-15	9.86747e-19
2	1054	2564	-0.0149067	0.0162388	0.0005	106503	13.8449	-0.0849446	0	288.175	1	1.3327e-29	7.27383e-30	3.9968e-15	8.30929e-19
2	1055	2574	-0.024	0.017	0.0005	106134	11.1959	0.0082623	0	287.634	1	2.06616e-41	1.1277e-41	0	4.3147e-30
2	1086	2474	-0.024003	0.012	0.0005	106182	11.2203	0.0805059	0	287.639	1	8.34462e-41	4.55446e-41	0	1.60045e-29
2	1087	2467	-0.0175219	0.0127451	0.0005	106464	12.8673	0.0514336	0	288.075	1	3.9382e-32	2.14946e-32	0	6.51484e-21
2	1088	2491	-0.0167859	0.0134456	0.0005	106539	13.7006	-0.0270355	0	288.098	1	2.72299e-32	1.4862e-32	4.44089e-15	4.39102e-21
2	1089	2516	-0.0167743	0.0141478	0.0005	106537	13.6175	-0.0744294	0	288.099	1	1.48062e-33	8.08119e-34	2.22045e-15	2.11997e-22
2	1090	2516	-0.0167745	0.014852	0.0005	106537	13.6175	-0.0744294	0	288.099	1	1.48062e-33	8.08119e-34	2.22045e-15	2.11997e-22
2	1091	2541	-0.0167869	0.0155538	0.0005	106536	13.6796	-0.094563	0	288.099	1	7.4578e-33	4.07044e-33	5.32907e-15	5.65547e-22
2	1092	2567	-0.0175198	0.0162547	0.0005	106488	12.8255	-0.0909611	0	288.079	1	7.97882e-33	4.35481e-33	4.55191e-15	5.86775e-22
2	1093	2574	-0.024003	0.017	0.0005	106134	11.1959	0.0082623	0	287.634	1	2.06616e-41	1.1277e-41	0	4.3147e-30
2	1124	2474	-0.0240327	0.012	0.0005	106182	11.2203	0.0805059	0	287.639	1	8.34462e-41	4.55446e-41	0	1.60045e-29
2	1125	2469	-0.0199452	0.0127335	0.0005	106249	12.7553	0.0678285	0	287.99	1	2.67472e-34	1.45985e-34	1.33227e-15	4.13294e-23
2	1126	2494	-0.019472	0.0134379	0.0005	106260	13.0882	0.00440884	0	287.987	1	1.75594e-35	9.58386e-36	2.55351e-15	2.71116e-24
2	1127	2519	-0.0194684	0.0141452	0.0005	106275	13.0013	-0.0280587	0	287.99	1	6.32698e-37	3.45324e-37	1.66533e-15	9.63773e-26
2	1128	2519	-0.0194681	0.0148545	0.0005	106275	13.0013	-0.0280587	0	287.99	1	6.32698e-37	3.45324e-37	1.66533e-15	9.63773e-26
2	1129	2544	-0.0194711	0.0155615	0.0005	106293	13.0341	-0.0487495	0	287.993	1	4.75418e-36	2.59481e-36	8.32667e-15	4.96441e-25
2	1130	2569	-0.0199436	0.0162664	0.0005	106302	12.6687	-0.0840094	0	287.997	1	4.08672e-35	2.23051e-35	0	3.82721e-24
2	1131	2574	-0.0240327	0.017	0.0005	106134	11.1959	0.0082623	0	287.634	1	2.06616e-41	1.1277e-41	0	4.3147e-30
2	1162	2474	-0.0242172	0.012	0.0005	106182	11.2203	0.0805059	0	287.639	1	8.34462e-41	4.55446e-41	0	1.60045e-29
2	1163	2472	-0.0224973	0.0127206	0.0005	106119	12.2101	0.0874475	0	287.623	1	6.50349e-38	3.54958e-38	2.66454e-15	1.06805e-26
2	1164	2497	-0.0222668	0.0134308	0.0005	106121	12.3011	0.0858104	0	287.621	1	3.8345e-39	2.09286e-39	0	6.74937e-28
2	1165	2522	-0.0222677	0.0141431	0.0005	106121	12.2332	0.0885561	0	287.62	1	9.34897e-41	5.10263e-41	0	1.84249e-29
2	1166	2522	-0.0222676	0.014856	0.0005	106121	12.2332	0.0885561	0	287.62	1	9.34897e-41	5.10263e-41	0	1.84249e-29
2	1167	2547	-0.0222666	0.0155677	0.0005	106125	12.2204	0.0584754	0	287.621	1	7.91544e-40	4.32021e-40	0	1.32988e-28
2	1168	2572	-0.0224956	0.0162788	0.0005	106124	12.0801	-0.0317506	0	287.623	1	1.26538e-38	6.9064e-39	0	1.8456e-27
2	1169	2574	-0.0242172	0.017	0.0005	106134	11.1959	0.0082623	0	287.634	1	2.06616e-41	1.1277e-41	0	4.3147e-30
