# vtk DataFile Version 2.0
sampleSurface
ASCII
DATASET POLYDATA
POINTS 16001 float
0 0 0.0005 0 0.001 0.0005 0.001 0 0.0005 -0.001 0
0.0005 0.001 0.001 0.0005 -0.001 0.001 0.0005 0.002 0 0.0005
0 0.002 0.0005 -0.002 0 0.0005 0.002 0.001 0.0005 0.001
0.002 0.0005 -0.002 0.001 0.0005 -0.001 0.002 0.0005 0.002 0.002
0.0005 -0.002 0.002 0.0005 0.003 0 0.0005 0 0.003 0.0005
-0.003 0 0.0005 0.003 0.001 0.0005 0.001 0.003 0.0005 -0.003
0.001 0.0005 -0.001 0.003 0.0005 0.003 0.002 0.0005 0.002 0.003
0.0005 -0.003 0.002 0.0005 -0.002 0.003 0.0005 0.004 0 0.0005
0 0.004 0.0005 -0.004 0 0.0005 0.004 0.001 0.0005 0.001
0.004 0.0005 -0.004 0.001 0.0005 -0.001 0.004 0.0005 0.003 0.003
0.0005 -0.003 0.003 0.0005 0.004 0.002 0.0005 0.002 0.004 0.0005
-0.004 0.002 0.0005 -0.002 0.004 0.0005 0.004 0.003 0.0005 0.003
0.004 0.0005 -0.004 0.003 0.0005 -0.003 0.004 0.0005 0.005 0
0.0005 0 0.005 0.0005 -0.005 0 0.0005 0.005 0.001 0.0005
0.001 0.005 0.0005 -0.005 0.001 0.0005 -0.001 0.005 0.0005 0.005
0.002 0.0005 0.002 0.005 0.0005 -0.005 0.002 0.0005 -0.002 0.005
0.0005 0.004 0.004 0.0005 -0.004 0.004 0.0005 0.005 0.003 0.0005
0.003 0.005 0.0005 -0.005 0.003 0.0005 -0.003 0.005 0.0005 0.006
0 0.0005 0 0.006 0.0005 -0.006 0 0.0005 0.006 0.001
0.0005 0.001 0.006 0.0005 -0.006 0.001 0.0005 -0.001 0.006 0.0005
0.006 0.002 0.0005 0.002 0.006 0.0005 -0.006 0.002 0.0005 -0.002
0.006 0.0005 0.005 0.004 0.0005 0.004 0.005 0.0005 -0.005 0.004
0.0005 -0.004 0.005 0.0005 0.006 0.003 0.0005 0.003 0.006 0.0005
-0.006 0.003 0.0005 -0.003 0.006 0.0005 0.007 0 0.0005 0
0.007 0.0005 -0.007 0 0.0005 0.007 0.001 0.0005 0.005 0.005
0.0005 0.001 0.007 0.0005 -0.007 0.001 0.0005 -0.005 0.005 0.0005
-0.001 0.007 0.0005 0.006 0.004 0.0005 0.004 0.006 0.0005 -0.006
0.004 0.0005 -0.004 0.006 0.0005 0.007 0.002 0.0005 0.002 0.007
0.0005 -0.007 0.002 0.0005 -0.002 0.007 0.0005 0.007 0.003 0.0005
0.003 0.007 0.0005 -0.007 0.003 0.0005 -0.003 0.007 0.0005 0.006
0.005 0.0005 0.005 0.006 0.0005 -0.006 0.005 0.0005 -0.005 0.006
0.0005 0.008 0 0.0005 0 0.008 0.0005 -0.008 0 0.0005
0.008 0.001 0.0005 0.001 0.008 0.0005 -0.008 0.001 0.0005 -0.001
0.008 0.0005 0.007 0.004 0.0005 0.004 0.007 0.0005 -0.007 0.004
0.0005 -0.004 0.007 0.0005 0.008 0.002 0.0005 0.002 0.008 0.0005
-0.008 0.002 0.0005 -0.002 0.008 0.0005 0.006 0.006 0.0005 -0.006
0.006 0.0005 0.008 0.003 0.0005 0.003 0.008 0.0005 -0.008 0.003
0.0005 -0.003 0.008 0.0005 0.007 0.005 0.0005 0.005 0.007 0.0005
-0.007 0.005 0.0005 -0.005 0.007 0.0005 0.008 0.004 0.0005 0.004
0.008 0.0005 -0.008 0.004 0.0005 -0.004 0.008 0.0005 0.009 0
0.0005 0 0.009 0.0005 -0.009 0 0.0005 0.009 0.001 0.0005
0.001 0.009 0.0005 -0.009 0.001 0.0005 -0.001 0.009 0.0005 0.009
0.002 0.0005 0.002 0.009 0.0005 -0.009 0.002 0.0005 -0.002 0.009
0.0005 0.007 0.006 0.0005 0.006 0.007 0.0005 -0.007 0.006 0.0005
-0.006 0.007 0.0005 0.008 0.005 0.0005 0.005 0.008 0.0005 -0.008
0.005 0.0005 -0.005 0.008 0.0005 0.009 0.003 0.0005 0.003 0.009
0.0005 -0.009 0.003 0.0005 -0.003 0.009 0.0005 0.009 0.004 0.0005
0.004 0.009 0.0005 -0.009 0.004 0.0005 -0.004 0.009 0.0005 0.007
0.007 0.0005 -0.007 0.007 0.0005 0.008 0.006 0.0005 0.006 0.008
0.0005 -0.008 0.006 0.0005 -0.006 0.008 0.0005 0.01 0 0.0005
0 0.01 0.0005 -0.01 0 0.0005 0.01 0.001 0.0005 0.001
0.01 0.0005 -0.01 0.001 0.0005 -0.001 0.01 0.0005 0.01 0.002
0.0005 0.002 0.01 0.0005 -0.01 0.002 0.0005 -0.002 0.01 0.0005
0.009 0.005 0.0005 0.005 0.009 0.0005 -0.009 0.005 0.0005 -0.005
0.009 0.0005 0.01 0.003 0.0005 0.003 0.01 0.0005 -0.01 0.003
0.0005 -0.003 0.01 0.0005 0.008 0.007 0.0005 0.007 0.008 0.0005
-0.008 0.007 0.0005 -0.007 0.008 0.0005 0.01 0.004 0.0005 0.004
0.01 0.0005 -0.01 0.004 0.0005 -0.004 0.01 0.0005 0.009 0.006
0.0005 0.006 0.009 0.0005 -0.009 0.006 0.0005 -0.006 0.009 0.0005
0.011 0 0.0005 0 0.011 0.0005 -0.011 0 0.0005 0.011
0.001 0.0005 0.001 0.011 0.0005 -0.011 0.001 0.0005 -0.001 0.011
0.0005 0.011 0.002 0.0005 0.002 0.011 0.0005 -0.011 0.002 0.0005
-0.002 0.011 0.0005 0.01 0.005 0.0005 0.005 0.01 0.0005 -0.01
0.005 0.0005 -0.005 0.01 0.0005 0.008 0.008 0.0005 -0.008 0.008
0.0005 0.011 0.003 0.0005 0.009 0.007 0.0005 0.007 0.009 0.0005
0.003 0.011 0.0005 -0.011 0.003 0.0005 -0.009 0.007 0.0005 -0.007
0.009 0.0005 -0.003 0.011 0.0005 0.01 0.006 0.0005 0.006 0.01
0.0005 -0.01 0.006 0.0005 -0.006 0.01 0.0005 0.011 0.004 0.0005
0.004 0.011 0.0005 -0.011 0.004 0.0005 -0.004 0.011 0.0005 0.012
0 0.0005 0 0.012 0.0005 -0.012 0 0.0005 0.012 0.001
0.0005 0.009 0.008 0.0005 0.008 0.009 0.0005 0.001 0.012 0.0005
-0.012 0.001 0.0005 -0.009 0.008 0.0005 -0.008 0.009 0.0005 -0.001
0.012 0.0005 0.011 0.005 0.0005 0.005 0.011 0.0005 -0.011 0.005
0.0005 -0.005 0.011 0.0005 0.012 0.002 0.0005 0.002 0.012 0.0005
-0.012 0.002 0.0005 -0.002 0.012 0.0005 0.01 0.007 0.0005 0.007
0.01 0.0005 -0.01 0.007 0.0005 -0.007 0.01 0.0005 0.012 0.003
0.0005 0.003 0.012 0.0005 -0.012 0.003 0.0005 -0.003 0.012 0.0005
0.011 0.006 0.0005 0.006 0.011 0.0005 -0.011 0.006 0.0005 -0.006
0.011 0.0005 0.012 0.004 0.0005 0.004 0.012 0.0005 -0.012 0.004
0.0005 -0.004 0.012 0.0005 0.009 0.009 0.0005 -0.009 0.009 0.0005
0.01 0.008 0.0005 0.008 0.01 0.0005 -0.01 0.008 0.0005 -0.008
0.01 0.0005 0.013 0 0.0005 0 0.013 0.0005 -0.013 0
0.0005 0.012 0.005 0.0005 0.005 0.012 0.0005 -0.012 0.005 0.0005
-0.005 0.012 0.0005 0.013 0.001 0.0005 0.011 0.007 0.0005 0.007
0.011 0.0005 0.001 0.013 0.0005 -0.013 0.001 0.0005 -0.011 0.007
0.0005 -0.007 0.011 0.0005 -0.001 0.013 0.0005 0.013 0.002 0.0005
0.002 0.013 0.0005 -0.013 0.002 0.0005 -0.002 0.013 0.0005 0.013
0.003 0.0005 0.003 0.013 0.0005 -0.013 0.003 0.0005 -0.003 0.013
0.0005 0.012 0.006 0.0005 0.006 0.012 0.0005 -0.012 0.006 0.0005
-0.006 0.012 0.0005 0.01 0.009 0.0005 0.009 0.01 0.0005 -0.01
0.009 0.0005 -0.009 0.01 0.0005 0.013 0.004 0.0005 0.011 0.008
0.0005 0.008 0.011 0.0005 0.004 0.013 0.0005 -0.013 0.004 0.0005
-0.011 0.008 0.0005 -0.008 0.011 0.0005 -0.004 0.013 0.0005 0.012
0.007 0.0005 0.007 0.012 0.0005 -0.012 0.007 0.0005 -0.007 0.012
0.0005 0.013 0.005 0.0005 0.005 0.013 0.0005 -0.013 0.005 0.0005
-0.005 0.013 0.0005 0.014 0 0.0005 0 0.014 0.0005 -0.014
0 0.0005 0.014 0.001 0.0005 0.001 0.014 0.0005 -0.014 0.001
0.0005 -0.001 0.014 0.0005 0.014 0.002 0.0005 0.01 0.01 0.0005
0.002 0.014 0.0005 -0.014 0.002 0.0005 -0.01 0.01 0.0005 -0.002
0.014 0.0005 0.011 0.009 0.0005 0.009 0.011 0.0005 -0.011 0.009
0.0005 -0.009 0.011 0.0005 0.013 0.006 0.0005 0.006 0.013 0.0005
-0.013 0.006 0.0005 -0.006 0.013 0.0005 0.014 0.003 0.0005 0.003
0.014 0.0005 -0.014 0.003 0.0005 -0.003 0.014 0.0005 0.012 0.008
0.0005 0.008 0.012 0.0005 -0.012 0.008 0.0005 -0.008 0.012 0.0005
0.014 0.004 0.0005 0.004 0.014 0.0005 -0.014 0.004 0.0005 -0.004
0.014 0.0005 0.013 0.007 0.0005 0.007 0.013 0.0005 -0.013 0.007
0.0005 -0.007 0.013 0.0005 0.011 0.01 0.0005 0.01 0.011 0.0005
-0.011 0.01 0.0005 -0.01 0.011 0.0005 0.014 0.005 0.0005 0.005
0.014 0.0005 -0.014 0.005 0.0005 -0.005 0.014 0.0005 0.015 0
0.0005 0.012 0.009 0.0005 0.009 0.012 0.0005 0 0.015 0.0005
-0.015 0 0.0005 -0.012 0.009 0.0005 -0.009 0.012 0.0005 0.015
0.001 0.0005 0.001 0.015 0.0005 -0.015 0.001 0.0005 -0.001 0.015
0.0005 0.015 0.002 0.0005 0.002 0.015 0.0005 -0.015 0.002 0.0005
-0.002 0.015 0.0005 0.014 0.006 0.0005 0.006 0.014 0.0005 -0.014
0.006 0.0005 -0.006 0.014 0.0005 0.013 0.008 0.0005 0.008 0.013
0.0005 -0.013 0.008 0.0005 -0.008 0.013 0.0005 0.015 0.003 0.0005
0.003 0.015 0.0005 -0.015 0.003 0.0005 -0.003 0.015 0.0005 0.015
0.004 0.0005 0.004 0.015 0.0005 -0.015 0.004 0.0005 -0.004 0.015
0.0005 0.011 0.011 0.0005 -0.011 0.011 0.0005 0.012 0.01 0.0005
0.01 0.012 0.0005 -0.012 0.01 0.0005 -0.01 0.012 0.0005 0.014
0.007 0.0005 0.007 0.014 0.0005 -0.014 0.007 0.0005 -0.007 0.014
0.0005 0.015 0.005 0.0005 0.013 0.009 0.0005 0.009 0.013 0.0005
0.005 0.015 0.0005 -0.015 0.005 0.0005 -0.013 0.009 0.0005 -0.009
0.013 0.0005 -0.005 0.015 0.0005 0.016 0 0.0005 0 0.016
0.0005 -0.016 0 0.0005 0.016 0.001 0.0005 0.001 0.016 0.0005
-0.016 0.001 0.0005 -0.001 0.016 0.0005 0.016 0.002 0.0005 0.002
0.016 0.0005 -0.016 0.002 0.0005 -0.002 0.016 0.0005 0.014 0.008
0.0005 0.008 0.014 0.0005 -0.014 0.008 0.0005 -0.008 0.014 0.0005
0.015 0.006 0.0005 0.006 0.015 0.0005 -0.015 0.006 0.0005 -0.006
0.015 0.0005 0.016 0.003 0.0005 0.012 0.011 0.0005 0.011 0.012
0.0005 0.003 0.016 0.0005 -0.016 0.003 0.0005 -0.012 0.011 0.0005
-0.011 0.012 0.0005 -0.003 0.016 0.0005 0.013 0.01 0.0005 0.01
0.013 0.0005 -0.013 0.01 0.0005 -0.01 0.013 0.0005 0.016 0.004
0.0005 0.004 0.016 0.0005 -0.016 0.004 0.0005 -0.004 0.016 0.0005
0.015 0.007 0.0005 0.007 0.015 0.0005 -0.015 0.007 0.0005 -0.007
0.015 0.0005 0.014 0.009 0.0005 0.009 0.014 0.0005 -0.014 0.009
0.0005 -0.009 0.014 0.0005 0.016 0.005 0.0005 0.005 0.016 0.0005
-0.016 0.005 0.0005 -0.005 0.016 0.0005 0.012 0.012 0.0005 -0.012
0.012 0.0005 0.015 0.008 0.0005 0.008 0.015 0.0005 -0.015 0.008
0.0005 -0.008 0.015 0.0005 0.017 0 0.0005 0 0.017 0.0005
-0.017 0 0.0005 0.013 0.011 0.0005 0.011 0.013 0.0005 -0.013
0.011 0.0005 -0.011 0.013 0.0005 0.017 0.001 0.0005 0.001 0.017
0.0005 -0.017 0.001 0.0005 -0.001 0.017 0.0005 0.016 0.006 0.0005
0.006 0.016 0.0005 -0.016 0.006 0.0005 -0.006 0.016 0.0005 0.017
0.002 0.0005 0.002 0.017 0.0005 -0.017 0.002 0.0005 -0.002 0.017
0.0005 0.014 0.01 0.0005 0.01 0.014 0.0005 -0.014 0.01 0.0005
-0.01 0.014 0.0005 0.017 0.003 0.0005 0.003 0.017 0.0005 -0.017
0.003 0.0005 -0.003 0.017 0.0005 0.016 0.007 0.0005 0.007 0.016
0.0005 -0.016 0.007 0.0005 -0.007 0.016 0.0005 0.017 0.004 0.0005
0.004 0.017 0.0005 -0.017 0.004 0.0005 -0.004 0.017 0.0005 0.015
0.009 0.0005 0.009 0.015 0.0005 -0.015 0.009 0.0005 -0.009 0.015
0.0005 0.013 0.012 0.0005 0.012 0.013 0.0005 -0.012 0.013 0.0005
-0.013 0.012 0.0005 0.017 0.005 0.0005 0.005 0.017 0.0005 -0.017
0.005 0.0005 -0.005 0.017 0.0005 0.014 0.011 0.0005 0.011 0.014
0.0005 -0.014 0.011 0.0005 -0.011 0.014 0.0005 0.016 0.008 0.0005
0.008 0.016 0.0005 -0.016 0.008 0.0005 -0.008 0.016 0.0005 0.018
[...]
POINT_DATA 16001
FIELD attributes 17
p 1 16001 float
101928 101930 101960 101892 101962 101894 101988 101936 101852 101990 101970
101853 101898 102000 101855 102018 101944 101810 102021 101981 101811
101904 102032 102015 101812 101860 102056 101955 101771 102058 101996
101771 101911 102049 101815 102070 102035 101771 101865 102086 102073
101773 101819 102102 101964 101735 102103 102010 101735 101917 102113
102055 101736 101870 102113 101776 102126 102098 101737 101824 102151
101973 101704 102151 102025 101705 101922 102157 102077 101705 101874
102150 102137 101740 101782 102164 102127 101707 101829 102194 101979
101677 102193 102173 102037 101678 101745 101926 102182 102172 101710
101788 102194 102095 101679 101878 102196 102151 101681 101834 102200
102206 101714 101751 102223 101983 101651 102221 102046 101652 101927
102206 102197 101684 101794 102220 102113 101654 101880 102229 101718
102217 102188 101657 101835 102217 102230 101687 101756 102219 102244
101659 101797 102233 101979 101626 102231 102048 101627 101926 102229
102128 101629 101879 102238 102244 101689 101722 102222 102273 101660
101758 102225 102222 101631 101835 102224 102288 101633 101797 102248
101690 102231 102275 101661 101723 102229 101969 101601 102227 102016
101602 101916 102227 102087 101603 101878 102223 102303 101633 101758
102225 102227 101605 101833 102228 102265 101660 101689 102225 102324
101606 101796 102223 102292 101632 101722 102216 101842 101578 102216
101904 101578 101907 102221 102000 101579 101878 102223 102340 101605
101756 102236 101658 102225 102212 102275 102224 101579 101630 101686
101831 102221 102323 101604 101720 102230 102396 101578 101796 102206
102153 101557 102208 102217 102247 102003 101557 101627 101655 102536
102232 102432 101577 101755 102218 102084 101556 102642 102208 102309
101601 101684 102229 102269 101555 102755 102234 102404 101575 101719
102243 102430 101553 102839 102226 101624 102209 102275 101598 101652
102206 102396 101540 102250 102460 101551 102929 102210 102225 102376
102277 101539 101573 101683 102551 102225 102304 101538 102655 102241
102395 101535 102760 102256 102434 101548 103009 102220 102245 101596
101622 102257 102224 102330 102485 101531 101571 101651 102843 102254
102405 101546 103094 102268 102492 101528 102932 102221 102526 101526
102226 102464 101525 102609 102241 102240 102461 101522 101595 102694
102229 102292 101570 101621 102280 102471 101525 103011 102257 102500
101519 102779 102253 102368 101545 103170 102273 102537 101514 102857
102283 102441 101524 103094 102243 102275 101569 101594 102284 102522
101510 102940 102248 102247 102335 102609 101516 101546 103245 102252
102566 101514 102659 102263 102552 101511 102724 102300 102492 101507
103018 102284 102405 101524 103170 102277 102560 101506 102796 102293
102562 101501 102870 102268 101568 102249 102312 101546 103314 102310
102458 101507 103097 102306 102279 102368 102535 101497 101525 103244
102950 102277 102650 101508 102278 102620 101506 102687 102283 102612
101503 102740 102313 102423 101507 103170 102318 102502 101495 103024
102291 102271 102296 102610 101498 101546 103382 102807 102279 102343
101527 103313 102304 102600 101493 102879 102320 102471 101494 103099
102305 102388 101509 103243 102317 102566 101489 102957 102296 103448
102303 102440 101495 103170 102303 102634 101501 102297 102330 101527
103382 102302 102632 101500 102709 102324 102531 101486 103029 102301
102641 101497 102752 102303 102367 101511 103313 102303 102642 101492
102813 102321 102499 101486 103102 102309 102620 101487 102884 102291
102411 101497 103243 102314 102327 103448 103514 102311 102584 101483
102960 102318 102361 101511 103383 102322 102469 101486 103170 102320
102665 101497 102318 102304 102392 102673 101495 101498 102791 103313
102308 102549 101481 103031 102312 102700 101492 102837 102305 102699
101488 102876 102317 102442 101488 103243 102339 103515 102300 102517
101481 103103 102299 102668 101483 102913 102330 102357 103577 103450
102318 102384 101498 103384 102289 102621 101480 102946 102314 102487
101481 103171 102318 102422 101489 103313 102279 102576 101478 102976
102332 102740 101492 102328 102723 101491 102790 102319 102349 102366
102725 101489 102834 103578 103517 102333 102379 103636 103452 102303
102317 102463 102712 101485 101482 102875 103243 102273 102534 101477
103003 102338 102409 101488 103385 102285 102685 101481 102911 102261
102639 101478 102945 102275 102501 101478 103028 102310 102444 101482
103314 102367 103579 102350 102387 103636 103519 102248 102593 101476
102975 102347 102402 103688 103454 102335 102760 101489 102331 102731
101488 102804 102318 102718 101486 102841 102277 102480 101478 103053
102299 102703 101484 102879 102249 102322 102429 102551 101476 101482
103002 103386 102280 102682 101481 102913 102364 102382 103636 103581
102292 102464 101478 103077 102264 102358 102407 102519 101476 103028
103687 103521 102265 102647 101479 102945 102334 102421 103730 103455
102256 102611 101477 102974 102330 102775 101485 102287 102500 101476
103053 102326 102749 101485 102811 102309 102450 101478 103101 102314
102731 101484 102846 102263 102574 101476 103001 102382 103637 102299
102709 101483 102881 102373 102403 103686 103582 102291 102686 101482
102913 102353 102422 103729 103521 102304 102486 101476 103077 102277
102544 101475 103027 102294 102656 101480 102944 102329 102441 103124
103763 102287 102625 101478 102972 102301 102388 102401 102522 101476
103052 103685 103637 102321 102475 101475 103101 102321 102778 101484
102319 102748 101484 102814 102364 102418 103728 103582 102314 102727
101485 102848 102289 102593 101477 102999 102309 102354 102438 102705
101485 103147 102882 103763 102309 102685 101485 102913 102313 102505
101476 103077 102290 102338 102464 102564 101476 103125 103025 103791
102315 102661 101485 102943 102407 103684 102376 102415 103726 103637
102313 102368 102434 102635 101483 103169 102971 103762 102317 102490
101475 103102 102288 102541 101476 103051 102310 102779 101484 102310
102356 102459 102749 101485 103148 102816 103791 102311 102302 102607
102728 101486 101481 102997 102850 102313 102707 101488 102884 102307
102520 101476 103077 102337 102477 103127 103814 102316 102686 101489
102915 102396 102415 103725 103684 102304 102579 101479 103023 102380
102429 103191 103761 102322 102664 101490 102944 102370 102452 103171
103791 102329 102502 101474 103104 102324 102307 102553 102640 101488
101478 103050 102970 102351 102468 103150 103814 102304 102777 101489
102306 102748 101490 102814 102307 102615 101486 102996 102407 103725
102310 102393 102421 102726 101492 103211 102849 103760 102316 102527
101477 103078 102318 102346 102485 102705 101495 103129 102884 103835
102376 102444 103192 103791 102326 102686 101497 102915 102310 102589
101483 103022 102361 102457 103173 103815 102333 102665 101498 102944
102330 102504 101475 103106 102329 102560 101481 103050 102353 102471
103154 103835 102331 102645 101497 102970 102403 102411 103229 103760
102384 102430 103212 103791 102320 102367 102453 102622 101494 103194
102995 103816 102306 102750 101496 102308 102735 101497 102819 102338
102483 103133 103852 102334 102531 101479 103078 102313 102723 101499
102853 102322 102707 101502 102886 102359 102457 103176 103836 102315
102595 101490 103021 102332 102689 101504 102916 102402 103244 102334
102391 102410 102502 101477 103230 103108 103791 102341 102670 101505
102945 102347 102465 103157 103852 102373 102428 103213 103817 102325
102564 101487 103049 102344 102651 101504 102970 102364 102449 103196
103837 102340 102477 103136 103866 102343 102629 101501 102995 102315
102717 102337 102529 101485 103079 102316 102720 102320 102355 102449
102716 103179 103853 102327 102392 102387 102704 103245 103256 102382
102399 103230 103817 102347 102602 101497 103021 102334 102690 102340
102373 102425 102494 101482 103215 103109 103838 102352 102457 103161
103866 102341 102674 102341 102568 101494 103049 102364 102435 103199
103853 102342 102656 102347 102463 103138 103872 102387 103257 102390
102375 103264 103245 102339 102362 102440 102635 103183 103866 102338
102528 101492 103079 102330 102719 102331 102718 102385 102404 103231
103839 102331 102713 102331 102703 102343 102377 102421 102606 103217
103854 102333 102692 102360 102439 103163 103872 102345 102487 101489
103109 102334 102371 102428 102679 103202 103865 102348 102569 102397
102390 103265 103256 102335 102663 102397 102391 103269 103244 102353
102451 103138 103869 102370 102423 103185 103870 102390 102417 103232
103854 102356 102526 102335 102641 102344 102711 102383 102420 103218
103864 102344 102711 102341 102707 102340 102610 102337 102701 102368
102423 103164 103868 102351 102481 102334 102412 102693 103264 102376
102415 103204 103868 102409 102407 103269 103255 102401 102413 103270
103244 102332 102682 102351 102569 102394 102422 103232 103863 102350
102440 102332 102666 102379 102406 103186 103866 102363 102520 102384
102412 103219 103866 102329 102644 102354 102422 102426 102707 103268
103262 102353 102706 102366 102411 102426 102410 103270 103254 102349
102704 102322 102612 102358 102470 102345 102381 102399 102699 103204
103864 102402 102426 103269 103244 102339 102693 102327 102394 102418
102569 103232 103865 102335 102683 102373 102392 102354 102426 102329
102669 102387 102399 103219 103862 102437 103266 102423 102440 103269
103260 102343 102519 102409 102443 103270 103253 102323 102648 102361
102395 102358 102401 102430 102696 103266 103243 102376 102386 102357
102696 102354 102695 102318 102351 102468 102617 102351 102692 102393
102409 103232 103861 102345 102688 102323 102577 102340 102364 102378
102680 102441 102453 103267 103264 102354 102423 102423 102458 103268
103259 102383 102389 102330 102666 102410 102452 103268 103252 102332
102530 102322 102646 102396 102425 103265 103242 102358 102391 102371
102375 102356 102690 102355 102689 102338 102481 102331 102618 102353
102389 102399 102688 102456 103265 102351 102451 102470 102685 103267
103263 102422 102472 103266 103258 102346 102680 102365 102376 102334
102583 102343 102378 102380 102439 102340 102671 102400 102452 103266
103251 102328 102656 102333 102393 102418 102543 102371 102374 102315
102353 102408 102636 102465 102470 103265 103264 102432 102489 103265
103262 102385 102393 102346 102503 102352 102682 102351 102319 102612
102682 102401 102482 103265 103257 102347 102680 102345 102676 102394
102451 102366 102394 102344 102670 102377 102382 102330 102584 102353
102468 102342 102659 102388 102416 102466 103264 102337 102440 102491
102643 103264 103263 102343 102554 102370 102394 102509 102393 103263
103260 102359 102443 102332 102624 102382 102399 102392 102488 102359
102526 102330 102603 102347 102677 102384 102453 102346 102677 102343
102675 102365 102431 102376 102403 102343 102671 102338 102361 102502
102582 102346 102455 102485 102663 103263 103263 102385 102426 102408
102516 103262 103262 102350 102651 102388 102524 102342 102562 102367
102432 102353 102635 102374 102498 102359 102485 102381 102423 102360
102617 102340 102544 102382 102468 102480 103263 102358 102599 102447
102513 103262 103262 102374 102443 102341 102675 102342 102363 102479
102674 102401 102542 102343 102671 102346 102385 102453 102666 102343
102529 102350 102366 102542 102583 102347 102657 102343 102644 102373
102517 102363 102482 102379 102463 102342 102570 102344 102629 102345
102520 102480 102512 103261 103261 102386 102495 102432 102548 102355
102612 102331 102558 102376 102570 102367 102495 102349 102519 102356
102597 102384 102493 102339 102366 102564 102674 102341 102673 102345
102670 102333 102549 102348 102664 102347 102586 102348 102380 102544
102654 102352 102526 102374 102515 102346 102511 102642 103259 102465
102548 102343 102576 102339 102404 102584 102544 102386 102532 102347
102627 102374 102597 102358 102613 102334 102568 102354 102541 102373
102590 102382 102541 102340 102546 102356 102600 102344 102671 102345
102670 102347 102383 102575 102666 102332 102562 102496 102542 102349
102660 102436 102585 102347 102590 102348 102651 102360 102394 102615
102559 102343 102554 102352 102639 102386 102573 102373 102623 102341
102332 102560 102582 102350 102626 102378 102616 102343 102613 102337
102568 102331 102575 102370 102582 102527 102332 102562 102468 102574
102348 102602 102420 102618 102383 102608 102350 102667 102330 102571
102349 102666 102385 102641 102348 102662 102345 102593 102346 102656
102337 102586 102329 102570 102376 102646 102342 102647 102376 102607
102340 102637 102327 102569 102342 102585 102378 102640 102338 102626
102502 102559 102449 102607 102315 102582 102345 102605 102343 102578
102406 102644 102329 102614 102323 102572 102376 102633 102384 102661
102331 102604 102338 102574 102355 102660 102354 102374 102662 102659
102311 102598 102350 102655 102340 102594 102313 102351 102625 102580
102346 102649 102535 102342 102480 102588 102641 102332 102574 102371
102656 102431 102631 102346 102585 102338 102633 102398 102660 102337
102318 102614 102623 102298 102591 102356 102645 102351 102578 102378
102673 102325 102577 102338 102613 102369 102673 102341 102602 102347
102575 102508 102560 102295 102603 102328 102456 102608 102631 102313
102585 102355 102653 102354 102652 102352 102591 102350 102415 102645
102649 102345 102643 102358 102663 102344 102387 102669 102636 102340
102576 102359 102582 102342 102628 102303 102617 102298 102594 102371
102679 102338 102648 102336 102618 102331 102581 102360 102576 102526
102336 102476 102574 102608 102358 102676 102431 102618 102294 102605
102342 102597 102315 102396 102652 102631 102357 102575 102319 102587
102343 102663 102374 102672 102349 102648 102349 102647 102351 102587
102346 102643 102343 102638 102351 102577 102341 102630 102358 102678
102300 102615 102359 102579 102309 102596 102338 102324 102486 102534
102645 102621 102441 102580 102338 102612 102402 102621 102343 102344
102672 102582 102361 102575 102343 102375 102651 102601 102309 102626
102304 102604 102349 102591 102359 102575 102357 102668 102331 102656
102331 102589 102356 102581 102341 102648 102341 102488 102646 102443
102534 102342 102671 102341 102642 102403 102579 102340 102356 102578
102635 102305 102612 102318 102636 102337 102627 102323 102372 102617
102597 102357 102575 102334 102617 102331 102662 102351 102645 102350
102584 102337 102606 102357 102573 102310 102620 102346 102595 102336
102659 102316 102604 102322 102644 102437 102481 102359 102574 102397
102527 102355 102584 102341 102592 102364 102572 102326 102658 102360
102576 102334 102652 102335 102341 102610 102650 102314 102610 102337
102644 102315 102626 102357 102580 102339 102636 102333 102599 102319
102647 102339 102626 102359 102326 102635 102572 102340 102615 102352
102587 102424 102343 102602 102316 102645 102384 102470 102356 102572
102314 102613 102350 102518 102316 102631 102326 102605 102349 102590
102326 102563 102310 102642 102345 102595 102355 102576 102355 102580
102311 102599 102314 102617 102321 102609 102357 102573 102332 102663
102333 102660 102354 102583 102302 102621 102310 102631 102335 102652
102339 102602 102340 102643 102367 102409 102356 102570 102343 102631
102332 102457 102297 102629 102307 102506 102349 102617 102350 102591
102316 102610 102352 102603 102310 102292 102550 102618 102353 102572
102333 102608 102353 102297 102625 102590 102285 102584 102344 102600
102350 102578 102354 102580 102311 102280 102604 102610 102348 102326
102311 102393 102611 102301 102616 102352 102573 102285 102443 102347
102586 102333 102677 102334 102673 102339 102607 102335 102664 102269
102492 102338 102281 102611 102652 102348 102572 102339 102638 102263
102534 102345 102596 102344 102623 102317 102610 102304 102609 102345
102575 102332 102612 102344 102261 102566 102608 102286 102609 102341
102288 102328 102595 102342 102260 102376 102605 102342 102582 102262
102585 102243 102428 102338 102584 102308 102607 102292 102604 102324
102614 102237 102476 102332 102578 102339 102591 102337 102268 102594
102612 102336 102238 102517 102693 102337 102688 102339 102677 102340
102663 102332 102577 102339 102649 102297 102603 102314 102612 102339
102241 102548 102601 102264 102341 102276 102596 102633 102232 102307
102330 102617 102213 102358 102333 102580 102340 102618 102207 102411
102248 102569 102331 102338 102610 102604 102334 102210 102459 102588
102302 102608 102284 102598 102320 102619 102322 102594 102258 102581
102217 102499 102334 102336 102617 102598 102316 102588 102201 102238
102339 102704 102340 102179 102286 102699 102341 102226 102532 102689
102291 102602 102341 102316 102586 102675 102309 102172 102341 102616
102268 102588 102338 102336 102607 102661 102177 102395 102329 102622
102337 102646 102321 102590 102238 102557 102337 102631 102188 102444
102336 102616 102299 102610 102330 102618 102278 102595 102326 102597
102317 102623 102201 102486 102250 102573 102169 102318 102608 102142
102213 102133 102268 102335 102622 102332 102606 102138 102327 102308
102602 102216 102522 102288 102603 102343 102706 102306 102153 102383
102620 102344 102263 102584 102703 102345 102696 102308 102600 102344
102687 102338 102614 102339 102328 102625 102675 102232 102550 102171
102433 102332 102661 102315 102603 102336 102647 102104 102140 102276
102594 102297 102613 102090 102193 102339 102191 102478 102620 102095
102256 102247 102569 102332 102635 102323 102317 102626 102608 102112
102319 102314 102625 102211 102518 102336 102625 102331 102614 102136
102376 102304 102287 102604 102619 102263 102582 102306 102623 102344
102703 102345 102161 102429 102701 102231 102548 102346 102698 102305
102617 102338 102620 102071 102347 102694 102329 102046 102120 102627
102342 102048 102184 102686 102335 102186 102477 102675 102067 102253
102312 102618 102277 102594 102297 102615 102334 102250 102568 102663
102339 102625 102095 102317 102318 102627 102333 102320 102620 102652
102211 102519 102126 102376 102323 102642 102336 102627 102289 102604
102327 102267 102582 102624 102011 102051 102156 102431 102312 102002
102113 102635 102308 102623 102234 102549 102018 102186 102345 102700
102344 102699 102312 102632 102332 102328 102050 102257 102627 102626
102344 102699 102344 102186 102482 102699 102344 102694 102282 102593
102086 102322 102255 102568 102316 102299 102615 102630 102345 102685
102333 102628 102341 102674 102319 102625 102215 102523 102122 102382
102320 102631 102334 101991 102663 101965 102047 101972 102120 102272
102580 102328 102329 102157 102439 102628 102653 102292 102603 102003
102197 102325 102631 102240 102551 102310 102620 102044 102268 102323
102646 102190 102491 102324 102626 102327 102085 102333 102632 102345
102700 102324 102642 102345 102700 102345 102700 102286 102590 102345
102700 102261 102567 102302 102612 102349 102696 101946 101990 102325
102123 102394 102639 102220 102530 101936 102059 102351 102688 102327
102631 102318 101957 102138 102622 102348 102677 101999 102214 102326
102638 102160 102452 102341 102666 102277 102577 102295 102600 102325
102628 102246 102046 102284 102553 102335 102656 102325 102310 102616
102637 102195 102502 102088 102349 102335 102650 101947 102320 102624
101917 102007 102322 102635 102289 101922 102083 102586 102336 102645
102347 102267 102566 102347 102347 102127 102411 102303 102608 102346
101957 102162 102226 102536 102347 102334 102642 102006 102236 102348
102318 102633 102315 102619 102165 102469 102344 102053 102304 102328
102640 102281 102573 102342 102297 102252 102554 102597 102315 102628
102093 102369 102345 102308 102200 101919 101967 102515 102613 102321
101905 102036 102638 101924 102114 102344 101967 102189 102132 102432
102313 102623 102271 102562 102292 102584 102315 102636 102343 102232
102541 102351 102303 102605 102351 102017 102260 102351 102350 102351
102171 102487 102340 102061 102327 102309 102311 102617 102633 102352
101940 102285 102571 102352 101907 102000 102257 102554 102331 102299