#           y             T         TMean   TPrime2Mean           U_x           U_y           U_z       UMean_x       UMean_y       UMean_z UPrime2Mea... UPrime2Mea... UPrime2Mea... UPrime2Mea... UPrime2Mea... UPrime2Mea...            O2           H2O          C3H8             p         pMean   pPrime2Mean           CO2
         0.02       1427.56        323.75       29591.6       19.0703       10.7746             0       21.7139     -0.566047             0       39.2989      -3.43527             0       21.7633             0             0   3.15821e-07       0.06044      0.379887        106570        103162        379884      0.110737
    0.0201677       1402.59       322.416       28127.2        18.727        10.651             0       21.7339     -0.551158             0       39.1817      -2.75013             0       22.1326             0             0    2.5989e-05     0.0601504      0.382781        106567        103162        380563      0.110207
    0.0203353       1377.62       321.083       26662.8       18.3838       10.5273             0       21.7538     -0.536268             0       39.0644        -2.065             0        22.502             0             0   5.16623e-05     0.0598609      0.385676        106565        103162        381243      0.109676
     0.020503       1352.65        319.75       25198.5       18.0405       10.4037             0       21.7738     -0.521379             0       38.9472      -1.37986             0       22.8714             0             0   7.73355e-05     0.0595713       0.38857        106562        103161        381922      0.109146
    0.0206707       1327.69       318.416       23734.1       17.6973         10.28             0       21.7937      -0.50649             0         38.83     -0.694722             0       23.2408             0             0   0.000103009     0.0592818      0.391465        106559        103161        382601      0.108615
    0.0208383       1302.72       317.083       22269.8        17.354       10.1564             0       21.8137     -0.491601             0       38.7128   -0.00958517             0       23.6101             0             0   0.000128682     0.0589922       0.39436        106557        103160        383281      0.108085
     0.021006       1277.17        315.76         20820       17.0215       10.0331             0       21.8282     -0.476268             0       38.6007      0.683185             0       23.9818             0             0   0.000255623     0.0586418      0.397437        106554        103160        383961      0.107443
    0.0211737        1236.1       314.721       19763.3       16.9781       9.91948             0        21.698     -0.449001             0       38.6281       1.58142             0       24.4139             0             0    0.00310837     0.0566541      0.405438        106552        103159        384680      0.103801
    0.0213413       1195.03       313.682       18706.5       16.9347       9.80586             0       21.5677     -0.421734             0       38.6555       2.47965             0       24.8461             0             0    0.00596111     0.0546664      0.413439        106550        103159        385398      0.100159
     0.021509       1153.96       312.643       17649.8       16.8912       9.69224             0       21.4375     -0.394467             0       38.6828       3.37788             0       25.2783             0             0    0.00881385     0.0526786       0.42144        106548        103158        386116     0.0965171
    0.0216767       1112.89       311.604       16593.1       16.8478       9.57863             0       21.3072       -0.3672             0       38.7102       4.27611             0       25.7105             0             0     0.0116666     0.0506909       0.42944        106546        103158        386835     0.0928751
    0.0218443       1071.82       310.565       15536.4       16.8043       9.46501             0        21.177     -0.339933             0       38.7376       5.17434             0       26.1427             0             0     0.0145193     0.0487031      0.437441        106545        103157        387553     0.0892332
     0.022012       1030.34       309.544       14505.3       16.7637       9.36371             0       21.0358     -0.313684             0       38.7595       6.07201             0       26.5785             0             0     0.0176433     0.0465823      0.445627        106543        103157        388274     0.0853474
    0.0221797       983.465       308.752       13807.3       16.7589       9.42211             0       20.7531     -0.300628             0       38.7112       6.96239             0       27.0622             0             0     0.0242816     0.0427361       0.45621        106542        103156        389034     0.0783005
    0.0223473       936.593        307.96       13109.3       16.7541       9.48051             0       20.4705     -0.287571             0       38.6629       7.85277             0       27.5458             0             0       0.03092     0.0388899      0.466793        106541        103156        389794     0.0712535
     0.022515       889.721       307.168       12411.3       16.7493       9.53891             0       20.1878     -0.274515             0       38.6146       8.74314             0       28.0295             0             0     0.0375584     0.0350437      0.477376        106540        103155        390555     0.0642066
    0.0226827       842.849       306.376       11713.3       16.7445       9.59731             0       19.9051     -0.261458             0       38.5664       9.63352             0       28.5131             0             0     0.0441967     0.0311975      0.487959        106539        103155        391315     0.0571597
    0.0228504       795.977       305.584       11015.3       16.7397       9.65571             0       19.6225     -0.248402             0       38.5181       10.5239             0       28.9967             0             0     0.0508351     0.0273513      0.498542        106538        103154        392075     0.0501128
     0.023018       751.772       304.817       10343.3       16.7259        9.7085             0       19.3277     -0.238637             0       38.4445       11.3891             0       29.4998             0             0     0.0572683     0.0236312      0.508723        106537        103154        392842     0.0432968
    0.0231857       729.719       304.252       9886.95        16.638       9.71472             0       18.9319     -0.256214             0       38.1612       12.0454             0       30.1642             0             0     0.0619979     0.0209582      0.515567        106536        103154        393670     0.0383993
    0.0233534       707.667       303.688       9430.62         16.55       9.72093             0        18.536     -0.273792             0       37.8779       12.7016             0       30.8286             0             0     0.0667275     0.0182851      0.522411        106534        103153        394498     0.0335018
     0.023521       685.614       303.124        8974.3        16.462       9.72715             0       18.1402     -0.291369             0       37.5945       13.3579             0        31.493             0             0      0.071457     0.0156121      0.529255        106533        103153        395325     0.0286042
    0.0236887       663.561       302.559       8517.97        16.374       9.73337             0       17.7444     -0.308946             0       37.3112       14.0142             0       32.1575             0             0     0.0761866      0.012939      0.536099        106532        103152        396153     0.0237067
    0.0238564       641.508       301.995       8061.65        16.286       9.73959             0       17.3486     -0.326524             0       37.0279       14.6705             0       32.8219             0             0     0.0809161      0.010266      0.542943        106530        103152        396981     0.0188092
     0.024024       622.382       301.448       7618.15       16.1963       9.75328             0        16.952     -0.349758             0        36.775       15.2758             0       33.5178             0             0      0.085156     0.0078729      0.549045        106529        103151        397820     0.0144246
    0.0241917       620.756       301.007       7251.36       16.0961       9.81164             0       16.5507     -0.406817             0       36.7047       15.5767             0       34.4025             0             0     0.0864681    0.00715391      0.550711        106529        103151        398727     0.0131073
    0.0243594       619.129       300.566       6884.57       15.9959          9.87             0       16.1494     -0.463875             0       36.6344       15.8777             0       35.2871             0             0     0.0877803    0.00643492      0.552377        106529        103151        399635       0.01179
     0.024527       617.503       300.125       6517.78       15.8957       9.92835             0        15.748     -0.520934             0       36.5641       16.1786             0       36.1717             0             0     0.0890924    0.00571592      0.554043        106529        103150        400542     0.0104726
    0.0246947       615.877       299.684       6150.98       15.7955       9.98671             0       15.3467     -0.577992             0       36.4937       16.4795             0       37.0563             0             0     0.0904045    0.00499693      0.555709        106528        103150        401449     0.0091553
    0.0248624       614.251       299.243       5784.19       15.6953       10.0451             0       14.9454     -0.635051             0       36.4234       16.7805             0       37.9409             0             0     0.0917166    0.00427793      0.557375        106528        103149        402357    0.00783797
      0.02503        613.09       298.811       5427.39       15.5874       10.1175             0       14.5595       -0.6981             0       36.3424       17.0418             0        38.867             0             0     0.0929606     0.0036499      0.558405        106528        103149        403281     0.0066873
    0.0251977       614.059       298.424       5116.35       15.4445       10.2542             0       14.2446     -0.788603             0       36.2124       17.1218             0       39.9831             0             0     0.0938919    0.00343878      0.556519        106529        103148        404285    0.00630049
    0.0253654       615.028       298.037       4805.31       15.3016        10.391             0       13.9296     -0.879106             0       36.0825       17.2019             0       41.0992             0             0     0.0948233    0.00322766      0.554632        106530        103147        405289    0.00591367
     0.025533       615.997        297.65       4494.27       15.1588       10.5278             0       13.6147     -0.969609             0       35.9525       17.2819             0       42.2153             0             0     0.0957546    0.00301654      0.552746        106531        103146        406293    0.00552686
    0.0257007       616.966       297.263       4183.23       15.0159       10.6646             0       13.2997      -1.06011             0       35.8225       17.3619             0       43.3314             0             0      0.096686    0.00280541      0.550859        106532        103145        407297    0.00514004
    0.0258684       617.935       296.876       3872.19        14.873       10.8013             0       12.9848      -1.15062             0       35.6926       17.4419             0       44.4476             0             0     0.0976173    0.00259429      0.548973        106533        103144        408301    0.00475323
     0.026036        618.95         296.5       3577.79       14.7245       10.9459             0       12.6816      -1.24501             0       35.4614       17.4873             0       45.6042             0             0     0.0985183    0.00242416      0.546798        106534        103143        409341     0.0044415
    0.0262037       620.132       296.168       3344.17       14.5557        11.119             0       12.4214      -1.35362             0       34.8607       17.4061             0       46.9086             0             0      0.099308    0.00240373      0.543572        106536        103142        410512    0.00440408
    0.0263714       621.315       295.835       3110.56       14.3868       11.2921             0       12.1612      -1.46223             0         34.26        17.325             0        48.213             0             0      0.100098     0.0023833      0.540345        106537        103141        411683    0.00436665
     0.026539       622.497       295.503       2876.94        14.218       11.4653             0        11.901      -1.57084             0       33.6592       17.2438             0       49.5174             0             0      0.100887    0.00236287      0.537118        106539        103140        412854    0.00432922
    0.0267067        623.68       295.171       2643.33       14.0491       11.6384             0       11.6408      -1.67945             0       33.0585       17.1626             0       50.8219             0             0      0.101677    0.00234244      0.533891        106540        103139        414025    0.00429179
    0.0268744       624.862       294.838       2409.71       13.8803       11.8115             0       11.3806      -1.78806             0       32.4577       17.0815             0       52.1263             0             0      0.102467    0.00232201      0.530664        106542        103137        415196    0.00425436
     0.027042       625.842       294.525       2198.07       13.6871        12.005             0       11.1143      -1.89797             0        31.836       16.9565             0       53.4636             0             0      0.103104    0.00233583      0.527748        106543        103136        416384    0.00427968
    0.0272097       626.217       294.268       2052.12       13.4211       12.2593             0       10.8301      -2.01173             0       31.1514       16.7007             0       54.8991             0             0      0.103286    0.00245197      0.525764        106544        103135        417621    0.00449246
    0.0273774       626.591       294.011       1906.16       13.1552       12.5136             0       10.5459      -2.12549             0       30.4669        16.445             0       56.3345             0             0      0.103468     0.0025681       0.52378        106545        103133        418859    0.00470524
     0.027545       626.966       293.755        1760.2       12.8892        12.768             0       10.2617      -2.23925             0       29.7823       16.1892             0         57.77             0             0      0.103649    0.00268424      0.521795        106547        103132        420096    0.00491803
    0.0277127        627.34       293.498       1614.25       12.6233       13.0223             0       9.97746      -2.35301             0       29.0978       15.9334             0       59.2054             0             0      0.103831    0.00280038      0.519811        106548        103130        421333    0.00513081
    0.0278804       627.715       293.241       1468.29       12.3573       13.2766             0       9.69323      -2.46677             0       28.4132       15.6776             0       60.6409             0             0      0.104013    0.00291651      0.517827        106549        103129        422571     0.0053436
     0.028048       627.326       293.001       1338.05       12.0702       13.5441             0       9.40531      -2.58253             0       27.7497       15.3846             0       62.0683             0             0      0.104076    0.00306074      0.516067        106550        103127        423782    0.00560784
    0.0282157       625.036       292.803       1246.95       11.7303       13.8444             0       9.10819      -2.70326             0       27.1383       14.9991             0       63.4755             0             0      0.103846    0.00327488      0.514868        106551        103126        424927    0.00600019
    0.0283834       622.747       292.604       1155.85       11.3904       14.1446             0       8.81106      -2.82398             0       26.5269       14.6136             0       64.8828             0             0      0.103616    0.00348902      0.513669        106553        103124        426072    0.00639254
    0.0285511       620.458       292.406       1064.75       11.0505       14.4449             0       8.51393      -2.94471             0       25.9155       14.2282             0         66.29             0             0      0.103386    0.00370317       0.51247        106554        103122        427217     0.0067849
    0.0287187       618.168       292.207       973.651       10.7106       14.7451             0        8.2168      -3.06544             0       25.3041       13.8427             0       67.6972             0             0      0.103156    0.00391731      0.511271        106555        103121        428362    0.00717725
    0.0288864       615.879       292.008        882.55       10.3707       15.0453             0       7.91967      -3.18616             0       24.6928       13.4572             0       69.1045             0             0      0.102925    0.00413146      0.510071        106556        103119        429507     0.0075696
    0.0290541       612.375       291.823        801.67       10.0326       15.3381             0       7.62399       -3.3085             0       24.1169       13.0436             0        70.439             0             0       0.10276    0.00434524      0.508593        106558        103118        430563    0.00796128
    0.0292217       606.319       291.663       742.272       9.69831        15.615             0       7.33135      -3.43422             0       23.6156       12.5709             0       71.6206             0             0      0.102732    0.00455825      0.506529        106560        103116        431434    0.00835156
    0.0293894       600.262       291.504       682.875         9.364       15.8919             0       7.03871      -3.55993             0       23.1144       12.0983             0       72.8022             0             0      0.102703    0.00477126      0.504465        106561        103115        432304    0.00874184
    0.0295571       594.206       291.345       623.477       9.02968       16.1688             0       6.74607      -3.68565             0       22.6131       11.6256             0       73.9839             0             0      0.102675    0.00498427      0.502401        106563        103113        433174    0.00913212
    0.0297247       588.149       291.186       564.079       8.69537       16.4458             0       6.45343      -3.81137             0       22.1118        11.153             0       75.1655             0             0      0.102646    0.00519729      0.500337        106564        103112        434044     0.0095224
    0.0298924       582.093       291.027       504.681       8.36105       16.7227             0       6.16079      -3.93709             0       21.6106       10.6803             0       76.3471             0             0      0.102618     0.0054103      0.498273        106566        103110        434914    0.00991267
    0.0300601       574.837        290.88       453.461       8.06515       16.9648             0       5.87306      -4.06257             0       21.1904       10.1933             0       77.3994             0             0       0.10292    0.00556434      0.495377        106568        103109        435659     0.0101949
    0.0302277       565.433       290.755       416.893       7.83806       17.1445             0       5.59412      -4.18765             0       20.9154       9.68074             0       78.2201             0             0      0.103815    0.00561273      0.490989        106572        103107        436177     0.0102836
    0.0303954       556.029        290.63       380.326       7.61097       17.3242             0       5.31519      -4.31272             0       20.6405       9.16815             0       79.0407             0             0       0.10471    0.00566112      0.486601        106575        103106        436696     0.0103722
    0.0305631       546.625       290.504       343.758       7.38388       17.5039             0       5.03625       -4.4378             0       20.3655       8.65555             0       79.8613             0             0      0.105605    0.00570951      0.482213        106578        103105        437214     0.0104609
    0.0307307       537.221       290.379        307.19        7.1568       17.6836             0       4.75732      -4.56287             0       20.0906       8.14296             0       80.6819             0             0        0.1065     0.0057579      0.477825        106581        103104        437733     0.0105496
    0.0308984       527.817       290.254       270.623       6.92971       17.8633             0       4.47838      -4.68795             0       19.8156       7.63037             0       81.5026             0             0      0.107395     0.0058063      0.473437        106584        103103        438252     0.0106382
    0.0310661       517.942       290.141       240.368       6.75554       18.0001             0       4.20642      -4.81002             0       19.6445       7.12975             0        82.168             0             0      0.108818    0.00576441      0.467677        106589        103101        438654     0.0105615
    0.0312337       507.342       290.047       219.822       6.66274       18.0708             0       3.94519      -4.92749             0       19.6329       6.64755             0       82.5949             0             0      0.111055    0.00558367      0.459808        106595        103100        438877     0.0102303
    0.0314014       496.741       289.953       199.276       6.56994       18.1415             0       3.68396      -5.04496             0       19.6214       6.16535             0       83.0217             0             0      0.113292    0.00540294      0.451939        106602        103100        439100     0.0098992
    0.0315691       486.141       289.859        178.73       6.47715       18.2122             0       3.42273      -5.16243             0       19.6099       5.68315             0       83.4485             0             0      0.115529    0.00522221       0.44407        106608        103099        439324    0.00956807
    0.0317367       475.541       289.765       158.184       6.38435       18.2829             0       3.16149      -5.27989             0       19.5984       5.20096             0       83.8754             0             0      0.117765    0.00504148      0.436201        106614        103098        439547    0.00923694
    0.0319044       464.941       289.671       137.638       6.29156       18.3536             0       2.90026      -5.39736             0       19.5868       4.71876             0       84.3022             0             0      0.120002    0.00486075      0.428331        106621        103097        439770    0.00890581
    0.0320721       454.926       289.589       121.492       6.23888       18.4026             0       2.64683      -5.50957             0       19.6674       4.27228             0       84.5761             0             0      0.122583    0.00464084      0.419367        106628        103096        439918    0.00850289
    0.0322397       445.688       289.524       111.181       6.23941       18.4228             0       2.40375      -5.61482             0       19.8702        3.8732             0       84.6471             0             0      0.125622    0.00436896      0.408948        106636        103095        439965    0.00800475
    0.0324074       436.449       289.458       100.871       6.23994        18.443             0       2.16067      -5.72006             0        20.073       3.47412             0       84.7181             0             0       0.12866    0.00409708       0.39853        106643        103095        440013    0.00750661
    0.0325751       427.211       289.392       90.5606       6.24047       18.4632             0       1.91759       -5.8253             0       20.2758       3.07504             0       84.7892             0             0      0.131699     0.0038252      0.388111        106651        103094        440060    0.00700847
    0.0327427       417.972       289.327       80.2502       6.24101       18.4834             0       1.67451      -5.93055             0       20.4785       2.67596             0       84.8602             0             0      0.134737    0.00355331      0.377693        106659        103093        440108    0.00651033
    0.0329104       408.733       289.261       69.9398       6.24154       18.5036             0       1.43143      -6.03579             0       20.6813       2.27687             0       84.9312             0             0      0.137775    0.00328143      0.367275        106667        103093        440156     0.0060122
    0.0330781       400.534       289.206       62.1656       6.25645       18.5311             0       1.19823      -6.13451             0       20.9022       1.95851             0        84.846             0             0      0.140808    0.00303767      0.356591        106674        103092        440176    0.00556557
    0.0332457       393.527       289.162       57.3017       6.28787       18.5669             0       0.97635      -6.22575             0       21.1439       1.73275             0       84.5817             0             0      0.143835    0.00282616      0.345604        106681        103092        440165    0.00517805
    0.0334134        386.52       289.119       52.4377       6.31929       18.6026             0      0.754475      -6.31698             0       21.3855         1.507             0       84.3174             0             0      0.146862    0.00261466      0.334616        106687        103092        440155    0.00479054
    0.0335811       379.513       289.076       47.5737        6.3507       18.6384             0      0.532599      -6.40822             0       21.6272       1.28125             0       84.0531             0             0      0.149888    0.00240315      0.323629        106694        103091        440144    0.00440302
    0.0337487       372.506       289.032       42.7097       6.38212       18.6742             0      0.310724      -6.49946             0       21.8688        1.0555             0       83.7888             0             0      0.152915    0.00219164      0.312641        106701        103091        440134     0.0040155
    0.0339164       365.498       288.989       37.8458       6.41353         18.71             0     0.0888482      -6.59069             0       22.1105      0.829744             0       83.5245             0             0      0.155942    0.00198014      0.301654        106707        103091        440123    0.00362798
    0.0340841       359.862       288.953       34.2605       6.43348       18.7462             0     -0.120829      -6.67391             0        22.305      0.714764             0       83.1047             0             0      0.158816     0.0018047       0.29096        106715        103091        440123    0.00330655
    0.0342518       355.587       288.924       31.9464       6.44204       18.7828             0      -0.31838      -6.74915             0       22.4525      0.709897             0       82.5305             0             0      0.161538    0.00166512      0.280558        106724        103091        440133    0.00305081
    0.0344194       351.313       288.896       29.6322        6.4506       18.8194             0     -0.515931      -6.82439             0       22.6001      0.705031             0       81.9562             0             0       0.16426    0.00152554      0.270157        106733        103091        440143    0.00279507
    0.0345871       347.038       288.867        27.318       6.45915        18.856             0     -0.713482      -6.89963             0       22.7476      0.700164             0       81.3819             0             0      0.166982    0.00138595      0.259755        106743        103091        440153    0.00253932
    0.0347548       342.764       288.838       25.0039       6.46771       18.8926             0     -0.911034      -6.97487             0       22.8952      0.695298             0       80.8077             0             0      0.169704    0.00124637      0.249353        106752        103091        440163    0.00228358
    0.0349224       338.489        288.81       22.6897       6.47626       18.9293             0      -1.10858      -7.05011             0       23.0427      0.690431             0       80.2334             0             0      0.172426    0.00110679      0.238951        106761        103091        440173    0.00202784
    0.0350901       335.485       288.786       20.9585       6.45759        18.952             0      -1.29506      -7.11487             0       23.1382      0.779278             0       79.5076             0             0      0.174912   0.000998458      0.229257        106772        103091        440206    0.00182936
    0.0352578       333.574       288.766       19.7293       6.41546       18.9627             0        -1.472      -7.17061             0       23.1887      0.948824             0       78.6512             0             0      0.177194   0.000917042      0.220172        106783        103091        440260    0.00168019