#           y             T         TMean   TPrime2Mean           U_x           U_y           U_z       UMean_x       UMean_y       UMean_z UPrime2Mea... UPrime2Mea... UPrime2Mea... UPrime2Mea... UPrime2Mea... UPrime2Mea...            O2           H2O          C3H8             p         pMean   pPrime2Mean           CO2
         0.03       1895.69       302.578       18680.5       41.8703       3.62296             0       4.41999       1.28457             0        27.784       1.51589             0       51.9202             0             0    2.4957e-11     0.0937426     0.0376158        106651        103170        428272      0.171754
    0.0301702       1895.86       302.415       18454.7        41.899       4.06001             0       4.38824       1.32424             0        27.808       1.59048             0       51.8935             0             0   2.48039e-11     0.0937759     0.0372781        106638        103170        427790      0.171815
    0.0303403       1896.03       302.252         18229       41.9277       4.49705             0       4.35649        1.3639             0       27.8321       1.66507             0       51.8669             0             0   2.46507e-11     0.0938092     0.0369404        106624        103170        427309      0.171876
    0.0305105       1896.21       302.089       18003.2       41.9564        4.9341             0       4.32473       1.40356             0       27.8561       1.73966             0       51.8402             0             0   2.44975e-11     0.0938424     0.0366027        106611        103171        426827      0.171937
    0.0306807       1896.38       301.926       17777.4       41.9851       5.37115             0       4.29298       1.44323             0       27.8802       1.81425             0       51.8136             0             0   2.43443e-11     0.0938757      0.036265        106598        103171        426346      0.171998
    0.0308509       1896.55       301.763       17551.7       42.0138        5.8082             0       4.26123       1.48289             0       27.9043       1.88884             0       51.7869             0             0   2.41911e-11      0.093909     0.0359273        106584        103171        425864      0.172059
     0.031021       1896.71       301.598       17322.2       42.0022       6.23805             0        4.2314       1.52288             0       27.9365       1.96367             0       51.7469             0             0   2.39759e-11     0.0939425     0.0355864        106570        103172        425380       0.17212
    0.0311912       1896.83       301.418       17066.5       41.7042       6.61691             0       4.21523       1.56519             0       28.0267       2.04022             0       51.6124             0             0   2.33206e-11     0.0939781     0.0352233        106552        103172        424871      0.172185
    0.0313614       1896.95       301.238       16810.8       41.4063       6.99576             0       4.19906       1.60749             0       28.1168       2.11676             0       51.4779             0             0   2.26654e-11     0.0940137     0.0348601        106533        103173        424362      0.172251
    0.0315315       1897.07       301.058       16555.1       41.1084       7.37461             0       4.18289       1.64979             0        28.207       2.19331             0       51.3435             0             0   2.20102e-11     0.0940493     0.0344969        106515        103173        423853      0.172316
    0.0317017       1897.19       300.878       16299.3       40.8105       7.75346             0       4.16672        1.6921             0       28.2971       2.26986             0        51.209             0             0    2.1355e-11     0.0940849     0.0341337        106496        103173        423344      0.172381
    0.0318719       1897.31       300.699       16043.6       40.5126       8.13232             0       4.15054        1.7344             0       28.3873       2.34641             0       51.0745             0             0   2.06997e-11     0.0941205     0.0337705        106477        103174        422835      0.172446
     0.032042       1897.39       300.514         15779       40.2491       8.49036             0       4.13763       1.77681             0        28.522       2.43404             0       50.9182             0             0   2.34626e-11     0.0941572     0.0333955        106461        103174        422335      0.172514
    0.0322122       1897.36       300.315       15487.3       40.0904         8.785             0       4.13463       1.81953             0       28.7924       2.55548             0       50.6955             0             0   3.66427e-11     0.0941974     0.0329844        106450        103175        421865      0.172587
    0.0323824       1897.33       300.115       15195.7       39.9318       9.07964             0       4.13162       1.86224             0       29.0629       2.67692             0       50.4729             0             0   4.98228e-11     0.0942376     0.0325732        106439        103175        421394      0.172661
    0.0325526        1897.3       299.916         14904       39.7731       9.37427             0       4.12862       1.90496             0       29.3333       2.79835             0       50.2503             0             0   6.30029e-11     0.0942778     0.0321621        106428        103176        420924      0.172734
    0.0327227       1897.27       299.717       14612.3       39.6145       9.66891             0       4.12562       1.94768             0       29.6037       2.91979             0       50.0277             0             0    7.6183e-11      0.094318      0.031751        106417        103177        420454      0.172808
    0.0328929       1897.24       299.517       14320.6       39.4558       9.96354             0       4.12262        1.9904             0       29.8742       3.04123             0        49.805             0             0    8.9363e-11     0.0943582     0.0313399        106406        103177        419983      0.172882
    0.0330631       1897.09       299.309       14010.6       39.2962       10.2362             0       4.12223       2.03246             0       30.2358       3.17605             0       49.5538             0             0   3.18766e-10     0.0944016     0.0309035        106403        103178        419530      0.172961
    0.0332332       1896.71       299.085       13669.7       39.1349       10.4715             0       4.12626       2.07339             0       30.7526       3.33361             0       49.2539             0             0   9.15404e-10     0.0944504     0.0304244        106413        103178        419107      0.173051
    0.0334034       1896.34        298.86       13328.7       38.9736       10.7067             0       4.13029       2.11432             0       31.2693       3.49117             0        48.954             0             0   1.51204e-09     0.0944992     0.0299453        106423        103179        418684       0.17314
    0.0335736       1895.97       298.636       12987.8       38.8123        10.942             0       4.13432       2.15525             0        31.786       3.64873             0       48.6541             0             0   2.10868e-09      0.094548     0.0294662        106434        103180        418261       0.17323
    0.0337437       1895.59       298.412       12646.8        38.651       11.1773             0       4.13836       2.19618             0       32.3027       3.80629             0       48.3543             0             0   2.70532e-09     0.0945968     0.0289871        106444        103181        417838      0.173319
    0.0339139       1895.22       298.188       12305.9       38.4897       11.4126             0       4.14239       2.23711             0       32.8194       3.96386             0       48.0544             0             0   3.30196e-09     0.0946457      0.028508        106454        103181        417415      0.173409
    0.0340841       1894.77       297.952         11942       38.2679       11.6015             0       4.14866       2.27604             0       33.4564       4.13273             0       47.7177             0             0   5.03265e-09     0.0946959     0.0280371        106470        103182        417030        0.1735
    0.0342543       1894.24       297.704       11554.6       37.9841        11.743             0       4.15722       2.31293             0       34.2165       4.31317             0       47.3435             0             0   7.92438e-09     0.0947474     0.0275744        106491        103183        416684      0.173595
    0.0344244       1893.71       297.456       11167.2       37.7004       11.8845             0       4.16579       2.34982             0       34.9766       4.49362             0       46.9692             0             0   1.08161e-08      0.094799     0.0271118        106513        103184        416337      0.173689
    0.0345946       1893.19       297.208       10779.8       37.4166        12.026             0       4.17435        2.3867             0       35.7367       4.67407             0       46.5949             0             0   1.37079e-08     0.0948506     0.0266491        106535        103184        415991      0.173784
    0.0347648       1892.66        296.96       10392.4       37.1328       12.1676             0       4.18291       2.42359             0       36.4968       4.85452             0       46.2206             0             0   1.65996e-08     0.0949022     0.0261865        106557        103185        415644      0.173878
    0.0349349       1892.13       296.712       10005.1        36.849       12.3091             0       4.19148       2.46048             0       37.2569       5.03497             0       45.8464             0             0   1.94913e-08     0.0949538     0.0257238        106579        103186        415298      0.173973
    0.0351051       1891.72       296.453        9595.2       36.5445       12.5174             0        4.2034       2.49375             0       38.1025       5.20699             0       45.4292             0             0   1.15855e-07     0.0950013     0.0253415        106605        103187        414986       0.17406
    0.0352753       1891.38       296.187       9171.43       36.2272        12.767             0       4.21741       2.52478             0        39.001       5.37381             0       44.9855             0             0   2.70081e-07     0.0950464     0.0250088        106634        103188        414696      0.174143
    0.0354454       1891.04       295.921       8747.66       35.9098       13.0166             0       4.23142       2.55582             0       39.8995       5.54062             0       44.5418             0             0   4.24308e-07     0.0950915     0.0246762        106663        103189        414406      0.174225
    0.0356156        1890.7       295.655       8323.88       35.5925       13.2663             0       4.24543       2.58686             0        40.798       5.70744             0       44.0981             0             0   5.78534e-07     0.0951365     0.0243435        106692        103190        414116      0.174308
    0.0357858       1890.36       295.389       7900.11       35.2751       13.5159             0       4.25943       2.61789             0       41.6965       5.87425             0       43.6543             0             0   7.32761e-07     0.0951816     0.0240109        106721        103191        413826       0.17439
     0.035956       1890.01       295.123       7476.34       34.9578       13.7656             0       4.27344       2.64893             0        42.595       6.04107             0       43.2106             0             0   8.86988e-07     0.0952266     0.0236782        106750        103192        413536      0.174473
    0.0361261       1889.38       294.839       7015.53       34.7719        13.793             0       4.29155       2.67534             0       43.5105       6.17355             0       42.7335             0             0   2.36735e-05     0.0952599     0.0234487        106765        103193        413288      0.174534
    0.0362963       1888.64       294.548        6541.8       34.6318       13.7428             0        4.3111       2.70014             0       44.4319       6.29404             0       42.2446             0             0   5.43632e-05     0.0952891     0.0232552        106774        103194        413053      0.174587
    0.0364665       1887.89       294.257       6068.06       34.4918       13.6927             0       4.33064       2.72494             0       45.3534       6.41454             0       41.7558             0             0    8.5053e-05     0.0953182     0.0230617        106783        103195        412819      0.174641
    0.0366366       1887.15       293.967       5594.32       34.3518       13.6425             0       4.35019       2.74974             0       46.2748       6.53503             0        41.267             0             0   0.000115743     0.0953474     0.0228682        106792        103196        412585      0.174694
    0.0368068       1886.41       293.676       5120.59       34.2117       13.5923             0       4.36973       2.77454             0       47.1963       6.65553             0       40.7781             0             0   0.000146433     0.0953765     0.0226747        106801        103197        412351      0.174748
     0.036977       1885.67       293.385       4646.85       34.0717       13.5422             0       4.38927       2.79934             0       48.1177       6.77602             0       40.2893             0             0   0.000177122     0.0954056     0.0224812        106810        103198        412116      0.174801
    0.0371471       1817.99       293.086       4177.68       33.4215       13.2779             0       4.41307       2.81682             0        48.928       6.85467             0       39.7706             0             0    0.00877436     0.0915056     0.0251352        106799        103199        411942      0.167655
    0.0373173       1739.85       292.785       3709.21       32.6915       12.9801             0       4.43754       2.83316             0       49.7208       6.92677             0       39.2472             0             0     0.0187119     0.0869907     0.0282348        106785        103201        411776      0.159383
    0.0374875        1661.7       292.484       3240.75       31.9615       12.6822             0         4.462       2.84949             0       50.5137       6.99887             0       38.7238             0             0     0.0286495     0.0824758     0.0313343        106771        103202        411611      0.151111
    0.0376577       1583.55       292.183       2772.29       31.2316       12.3844             0       4.48646       2.86582             0       51.3066       7.07097             0       38.2004             0             0     0.0385871      0.077961     0.0344339        106757        103203        411445      0.142839
    0.0378278        1505.4       291.882       2303.82       30.5016       12.0866             0       4.51093       2.88215             0       52.0994       7.14307             0        37.677             0             0     0.0485247     0.0734461     0.0375334        106744        103204        411280      0.134567
     0.037998       1427.25       291.581       1835.36       29.7716       11.7888             0       4.53539       2.89849             0       52.8923       7.21517             0       37.1536             0             0     0.0584623     0.0689313      0.040633        106730        103205        411114      0.126295
    0.0381682       1318.42       291.377       1587.47        28.639       11.8275             0       4.56594       2.90316             0       53.4832       7.28721             0        36.583             0             0      0.072551     0.0623354     0.0468184        106672        103207        411081       0.11421
    0.0383383       1209.21       291.175       1342.21       27.5017       11.8701             0       4.59657        2.9077             0       54.0718       7.35925             0        36.012             0             0     0.0866891     0.0557148     0.0530405        106613        103208        411050       0.10208
    0.0385085       1100.01       290.972       1096.95       26.3644       11.9128             0       4.62719       2.91224             0       54.6604       7.43128             0       35.4409             0             0      0.100827     0.0490942     0.0592627        106555        103209        411019     0.0899498
    0.0386787       990.801       290.769       851.694        25.227       11.9554             0       4.65781       2.91678             0        55.249       7.50332             0       34.8698             0             0      0.114965     0.0424736     0.0654848        106496        103210        410988     0.0778196
    0.0388488       881.596       290.566       606.434       24.0897        11.998             0       4.68844       2.92132             0       55.8375       7.57536             0       34.2987             0             0      0.129103      0.035853      0.071707        106438        103212        410957     0.0656894
     0.039019       779.962       290.377       384.378       22.9966       12.0476             0       4.71963       2.92452             0       56.4044       7.65387             0       33.7219             0             0      0.142234     0.0296531     0.0780129        106381        103213        410939       0.05433
    0.0391892       738.493       290.293       346.734        22.255       12.1519             0       4.75532       2.91712             0       56.7987       7.78381             0       33.0993             0             0      0.147353     0.0267963     0.0849844        106340        103214        411029     0.0490958
    0.0393594       697.024       290.209       309.091       21.5134       12.2562             0       4.79102       2.90971             0       57.1931       7.91376             0       32.4768             0             0      0.152472     0.0239395      0.091956        106298        103215        411118     0.0438616
    0.0395295       655.555       290.125       271.447       20.7718       12.3604             0       4.82671        2.9023             0       57.5874        8.0437             0       31.8543             0             0      0.157592     0.0210827     0.0989275        106257        103217        411208     0.0386275
    0.0396997       614.086       290.041       233.804       20.0302       12.4647             0       4.86241       2.89489             0       57.9817       8.17364             0       31.2318             0             0      0.162711      0.018226      0.105899        106215        103218        411298     0.0333933
    0.0398699       572.618       289.957        196.16       19.2886        12.569             0       4.89811       2.88749             0       58.3761       8.30359             0       30.6093             0             0       0.16783     0.0153692      0.112871        106174        103219        411388     0.0281592
      0.04004       537.899       289.881       164.634       18.5885       12.6356             0       4.93429       2.87784             0       58.7286       8.44079             0       29.9768             0             0      0.171951     0.0129582      0.119624        106149        103221        411503     0.0237418
    0.0402102       525.121       289.831       152.988       18.0232       12.5795             0       4.97208       2.86093             0       58.9454       8.60156             0       29.3119             0             0      0.172827     0.0119961      0.125669        106180        103222        411701      0.021979
    0.0403804       512.343       289.781       141.342       17.4579       12.5234             0       5.00987       2.84402             0       59.1622       8.76234             0        28.647             0             0      0.173702     0.0110339      0.131715        106210        103223        411898     0.0202162
    0.0405506       499.565       289.731       129.696       16.8925       12.4673             0       5.04765       2.82711             0       59.3789       8.92311             0       27.9822             0             0      0.174578     0.0100718       0.13776        106240        103225        412096     0.0184534
    0.0407207       486.786        289.68        118.05       16.3272       12.4112             0       5.08544        2.8102             0       59.5957       9.08388             0       27.3173             0             0      0.175454    0.00910964      0.143805        106271        103226        412294     0.0166906
    0.0408909       474.008        289.63       106.405       15.7619       12.3551             0       5.12322       2.79329             0       59.8124       9.24466             0       26.6524             0             0      0.176329     0.0081475      0.149851        106301        103227        412491     0.0149277
    0.0410611        463.44       289.583       96.4097       15.3126       12.2592             0       5.16078       2.77419             0       59.9855       9.39037             0       25.9821             0             0      0.176801    0.00739179      0.155538        106335        103229        412710     0.0135431
    0.0412312        456.82       289.542       89.3648       15.0708        12.092             0       5.19793       2.75119             0       60.0806       9.50918             0       25.3019             0             0      0.176552    0.00700496      0.160588        106375        103230        412965     0.0128344
    0.0414014         450.2       289.501       82.3199       14.8289       11.9247             0       5.23508       2.72818             0       60.1757       9.62799             0       24.6218             0             0      0.176302    0.00661812      0.165637        106416        103232        413221     0.0121256
    0.0415716        443.58        289.46       75.2751        14.587       11.7575             0       5.27223       2.70517             0       60.2708        9.7468             0       23.9416             0             0      0.176052    0.00623128      0.170686        106456        103233        413477     0.0114169
    0.0417417        436.96       289.418       68.2302       14.3452       11.5903             0       5.30938       2.68216             0       60.3658       9.86561             0       23.2615             0             0      0.175803    0.00584445      0.175735        106496        103234        413733     0.0107081
    0.0419119        430.34       289.377       61.1853       14.1033       11.4231             0       5.34653       2.65915             0       60.4609       9.98442             0       22.5813             0             0      0.175553    0.00545761      0.180785        106537        103236        413988    0.00999936
    0.0420821       423.565       289.338       55.3812       13.9491        11.143             0       5.38068       2.63417             0       60.5247       10.0522             0       21.9084             0             0      0.175052    0.00510755       0.18655        106572        103237        414247    0.00935799
    0.0422523       416.623       289.303       50.9087       13.8888       10.7417             0       5.41161       2.60708             0       60.5551       10.0651             0       21.2434             0             0      0.174281    0.00479696      0.193083        106601        103238        414509    0.00878893
    0.0424224       409.682       289.267       46.4361       13.8286       10.3403             0       5.44254       2.57999             0       60.5855        10.078             0       20.5784             0             0      0.173511    0.00448637      0.199617        106630        103240        414771    0.00821986
    0.0425926        402.74       289.231       41.9635       13.7683       9.93899             0       5.47348        2.5529             0       60.6158        10.091             0       19.9134             0             0       0.17274    0.00417578       0.20615        106659        103241        415033     0.0076508
    0.0427628       395.798       289.195        37.491       13.7081       9.53766             0       5.50441       2.52581             0       60.6462       10.1039             0       19.2483             0             0      0.171969    0.00386519      0.212684        106688        103243        415294    0.00708174
    0.0429329       388.856        289.16       33.0184       13.6478       9.13633             0       5.53534       2.49872             0       60.6765       10.1169             0       18.5833             0             0      0.171199    0.00355459      0.219218        106717        103244        415556    0.00651268
    0.0431031       382.311       289.128       29.8388       13.4741        8.7559             0       5.55919       2.46891             0        60.643       10.0604             0       17.9287             0             0      0.170053    0.00326176      0.227202        106736        103245        415838    0.00597616
    0.0432733       376.025         289.1       27.5003       13.2267       8.38908             0       5.57843       2.43731             0       60.5678       9.95867             0       17.2809             0             0      0.168662    0.00298048      0.236131        106748        103247        416133     0.0054608
    0.0434434       369.739       289.072       25.1618       12.9793       8.02225             0       5.59767       2.40572             0       60.4927       9.85699             0       16.6332             0             0      0.167271    0.00269921       0.24506        106760        103248        416428    0.00494545
    0.0436136       363.452       289.044       22.8232       12.7318       7.65543             0       5.61691       2.37413             0       60.4175        9.7553             0       15.9854             0             0       0.16588    0.00241793      0.253989        106772        103249        416723    0.00443009
    0.0437838       357.166       289.016       20.4847       12.4844       7.28861             0       5.63615       2.34254             0       60.3424       9.65361             0       15.3376             0             0       0.16449    0.00213665      0.262918        106784        103251        417018    0.00391474
     0.043954       350.879       288.988       18.1462       12.2369       6.92178             0       5.65539       2.31095             0       60.2672       9.55192             0       14.6898             0             0      0.163099    0.00185537      0.271848        106796        103252        417313    0.00339938
    0.0441241       346.533       288.965       16.8632       11.9023       6.64738             0       5.66635       2.27315             0       60.0188       9.38798             0       14.0584             0             0      0.162058    0.00163135      0.278669        106806        103253        417623    0.00298894
    0.0442943       342.906       288.944       15.9719       11.5353       6.40727             0       5.67424       2.23305             0       59.7062       9.20094             0        13.433             0             0      0.161147    0.00142857      0.284708        106815        103254        417939    0.00261741
    0.0444645       339.279       288.924       15.0806       11.1683       6.16716             0       5.68213       2.19295             0       59.3936       9.01391             0       12.8076             0             0      0.160235    0.00122579      0.290748        106824        103256        418255    0.00224588
    0.0446346       335.653       288.903       14.1892       10.8013       5.92705             0       5.69002       2.15285             0       59.0809       8.82688             0       12.1822             0             0      0.159324    0.00102301      0.296787        106833        103257        418570    0.00187435
    0.0448048       332.026       288.882       13.2979       10.4344       5.68694             0        5.6979       2.11275             0       58.7683       8.63984             0       11.5568             0             0      0.158413   0.000820231      0.302827        106843        103258        418886    0.00150282
     0.044975       328.399       288.861       12.4066       10.0674       5.44683             0       5.70579       2.07265             0       58.4557       8.45281             0       10.9314             0             0      0.157502   0.000617451      0.308866        106852        103260        419202    0.00113129
    0.0451451       327.043        288.84       11.7852       9.89075       5.24224             0       5.70463        2.0216             0       57.8927       8.20215             0       10.3469             0             0       0.15773   0.000531742       0.30875        106853        103261        419533   0.000974251
    0.0453153       326.079       288.818       11.2105       9.74693       5.04379             0       5.70191       1.96865             0       57.2866       7.94052             0       9.76951             0             0      0.158155   0.000466218      0.307573        106853        103262        419867   0.000854198
    0.0454855       325.115       288.796       10.6357       9.60311       4.84533             0       5.69919       1.91571             0       56.6804       7.67889             0       9.19208             0             0       0.15858   0.000400693      0.306396        106852        103263        420200   0.000734145