#           y             T         TMean   TPrime2Mean           U_x           U_y           U_z       UMean_x       UMean_y       UMean_z UPrime2Mea... UPrime2Mea... UPrime2Mea... UPrime2Mea... UPrime2Mea... UPrime2Mea...            O2           H2O          C3H8             p         pMean   pPrime2Mean           CO2
         0.04       310.736       288.479       2.00927     -0.228193       18.7251             0      -4.58075      -6.90211             0       21.4841        8.9427             0       41.3911             0             0      0.203092   0.000132303      0.115639        107016        103126        435836   0.000242404
     0.039975       310.724        288.48        2.0438     -0.187906       18.7717             0      -4.57616       -6.9086             0       21.5048        8.8654             0       41.5813             0             0      0.203105   0.000132587      0.115579        107016        103126        435843   0.000242925
    0.0399499       310.712       288.481       2.07832     -0.147619       18.8184             0      -4.57156      -6.91509             0       21.5254        8.7881             0       41.7715             0             0      0.203118   0.000132871      0.115519        107015        103126        435849   0.000243445
    0.0399249         310.7       288.482       2.11285     -0.107331        18.865             0      -4.56697      -6.92158             0       21.5461       8.71079             0       41.9618             0             0      0.203131   0.000133156       0.11546        107014        103125        435855   0.000243966
    0.0398999       310.688       288.483       2.14738    -0.0670443       18.9116             0      -4.56238      -6.92807             0       21.5668       8.63349             0        42.152             0             0      0.203144    0.00013344        0.1154        107013        103125        435862   0.000244486
    0.0398749       310.676       288.483        2.1819    -0.0267571       18.9583             0      -4.55778      -6.93457             0       21.5875       8.55619             0       42.3422             0             0      0.203157   0.000133724       0.11534        107012        103125        435868   0.000245007
    0.0398498       310.664       288.484       2.21643       0.01353       19.0049             0      -4.55319      -6.94106             0       21.6082       8.47888             0       42.5324             0             0       0.20317   0.000134008      0.115281        107011        103125        435875   0.000245528
    0.0398248       310.651       288.485       2.25096     0.0538172       19.0516             0       -4.5486      -6.94755             0       21.6289       8.40158             0       42.7226             0             0      0.203183   0.000134292      0.115221        107010        103125        435881   0.000246048
    0.0397998       310.639       288.486       2.28548     0.0941043       19.0982             0        -4.544      -6.95404             0       21.6496       8.32427             0       42.9128             0             0      0.203196   0.000134576      0.115161        107009        103124        435888   0.000246569
    0.0397748       310.627       288.487       2.32001      0.134392       19.1448             0      -4.53941      -6.96053             0       21.6703       8.24697             0       43.1031             0             0      0.203209    0.00013486      0.115102        107009        103124        435894   0.000247089
    0.0397497       310.615       288.487       2.35453      0.174679       19.1915             0      -4.53482      -6.96702             0        21.691       8.16967             0       43.2933             0             0      0.203222   0.000135144      0.115042        107008        103124        435900    0.00024761
    0.0397247       310.603       288.488       2.38906      0.214966       19.2381             0      -4.53022      -6.97351             0       21.7117       8.09236             0       43.4835             0             0      0.203235   0.000135429      0.114982        107007        103124        435907    0.00024813
    0.0396997       310.591       288.489       2.42359      0.255253       19.2847             0      -4.52563      -6.98001             0       21.7324       8.01506             0       43.6737             0             0      0.203248   0.000135713      0.114923        107006        103124        435913   0.000248651
    0.0396747       310.579        288.49       2.45811       0.29554       19.3314             0      -4.52104       -6.9865             0       21.7531       7.93775             0       43.8639             0             0      0.203261   0.000135997      0.114863        107005        103124        435920   0.000249172
    0.0396496       310.567       288.491       2.49264      0.335827        19.378             0      -4.51644      -6.99299             0       21.7738       7.86045             0       44.0541             0             0      0.203274   0.000136281      0.114803        107004        103123        435926   0.000249692
    0.0396246       310.555       288.491       2.52717      0.376114       19.4246             0      -4.51185      -6.99948             0       21.7945       7.78315             0       44.2444             0             0      0.203287   0.000136565      0.114744        107003        103123        435933   0.000250213
    0.0395996       310.543       288.492       2.56169      0.416402       19.4713             0      -4.50726      -7.00597             0       21.8152       7.70584             0       44.4346             0             0        0.2033   0.000136849      0.114684        107003        103123        435939   0.000250733
    0.0395746        310.53       288.493       2.59622      0.456689       19.5179             0      -4.50266      -7.01246             0       21.8359       7.62854             0       44.6248             0             0      0.203313   0.000137133      0.114624        107002        103123        435945   0.000251254
    0.0395495       310.518       288.494       2.63074      0.496976       19.5645             0      -4.49807      -7.01896             0       21.8566       7.55124             0        44.815             0             0      0.203326   0.000137417      0.114565        107001        103123        435952   0.000251774
    0.0395245       310.506       288.495       2.66527      0.537263       19.6112             0      -4.49348      -7.02545             0       21.8773       7.47393             0       45.0052             0             0      0.203339   0.000137702      0.114505        107000        103122        435958   0.000252295
    0.0394995       310.494       288.495        2.6998       0.57755       19.6578             0      -4.48888      -7.03194             0        21.898       7.39663             0       45.1954             0             0      0.203352   0.000137986      0.114445        106999        103122        435965   0.000252816
    0.0394745       310.482       288.496       2.73432      0.617837       19.7045             0      -4.48429      -7.03843             0       21.9187       7.31932             0       45.3857             0             0      0.203365    0.00013827      0.114386        106998        103122        435971   0.000253336
    0.0394494        310.47       288.497       2.76885      0.658125       19.7511             0       -4.4797      -7.04492             0       21.9394       7.24202             0       45.5759             0             0      0.203378   0.000138554      0.114326        106997        103122        435978   0.000253857
    0.0394244       310.458       288.498       2.80338      0.698412       19.7977             0       -4.4751      -7.05141             0       21.9601       7.16472             0       45.7661             0             0      0.203391   0.000138838      0.114266        106996        103122        435984   0.000254377
    0.0393994       310.446       288.499        2.8379      0.738699       19.8444             0      -4.47051      -7.05791             0       21.9808       7.08741             0       45.9563             0             0      0.203404   0.000139122      0.114207        106996        103122        435990   0.000254898
    0.0393744       310.434       288.499       2.87243      0.778986        19.891             0      -4.46592       -7.0644             0       22.0015       7.01011             0       46.1465             0             0      0.203418   0.000139406      0.114147        106995        103121        435997   0.000255419
    0.0393493       310.422         288.5       2.90695      0.819273       19.9376             0      -4.46132      -7.07089             0       22.0222       6.93281             0       46.3367             0             0      0.203431   0.000139691      0.114087        106994        103121        436003   0.000255939
    0.0393243       310.409       288.501       2.94148       0.85956       19.9843             0      -4.45673      -7.07738             0       22.0429        6.8555             0        46.527             0             0      0.203444   0.000139975      0.114028        106993        103121        436010    0.00025646
    0.0392993       310.397       288.502       2.97601      0.899847       20.0309             0      -4.45213      -7.08387             0       22.0636        6.7782             0       46.7172             0             0      0.203457   0.000140259      0.113968        106992        103121        436016    0.00025698
    0.0392743       310.385       288.503       3.01053      0.940135       20.0775             0      -4.44754      -7.09036             0       22.0843       6.70089             0       46.9074             0             0       0.20347   0.000140543      0.113908        106991        103121        436023   0.000257501
    0.0392492       310.373       288.503       3.04506      0.980422       20.1242             0      -4.44295      -7.09685             0        22.105       6.62359             0       47.0976             0             0      0.203483   0.000140827      0.113849        106990        103120        436029   0.000258021
    0.0392242       310.361       288.504       3.07959       1.02071       20.1708             0      -4.43835      -7.10335             0       22.1257       6.54629             0       47.2878             0             0      0.203496   0.000141111      0.113789        106990        103120        436035   0.000258542
    0.0391992       310.349       288.505       3.11411         1.061       20.2175             0      -4.43376      -7.10984             0       22.1464       6.46898             0        47.478             0             0      0.203509   0.000141395      0.113729        106989        103120        436042   0.000259063
    0.0391742       310.337       288.506       3.14864       1.10128       20.2641             0      -4.42917      -7.11633             0       22.1671       6.39168             0       47.6683             0             0      0.203522   0.000141679       0.11367        106988        103120        436048   0.000259583
    0.0391491       310.325       288.507       3.18317       1.14157       20.3107             0      -4.42457      -7.12282             0       22.1878       6.31438             0       47.8585             0             0      0.203535   0.000141964       0.11361        106987        103120        436055   0.000260104
    0.0391241       310.313       288.507       3.21769       1.18186       20.3574             0      -4.41998      -7.12931             0       22.2085       6.23707             0       48.0487             0             0      0.203548   0.000142248       0.11355        106986        103120        436061   0.000260624
    0.0390991         310.3       288.508       3.25222       1.22214        20.404             0      -4.41539       -7.1358             0       22.2292       6.15977             0       48.2389             0             0      0.203561   0.000142532      0.113491        106985        103119        436068   0.000261145
    0.0390741       310.288       288.509       3.28674       1.26243       20.4506             0      -4.41079       -7.1423             0       22.2499       6.08246             0       48.4291             0             0      0.203574   0.000142816      0.113431        106984        103119        436074   0.000261666
     0.039049       310.276        288.51       3.32127       1.30272       20.4973             0       -4.4062      -7.14879             0       22.2705       6.00516             0       48.6193             0             0      0.203587     0.0001431      0.113371        106984        103119        436080   0.000262186
     0.039024       310.264       288.511        3.3558       1.34301       20.5439             0      -4.40161      -7.15528             0       22.2912       5.92786             0       48.8096             0             0        0.2036   0.000143384      0.113312        106983        103119        436087   0.000262707
     0.038999        310.25       288.511       3.39048       1.38348         20.59             0      -4.39677      -7.16164             0       22.3119       5.85132             0       49.0002             0             0      0.203611    0.00014369      0.113259        106982        103119        436093   0.000263268
     0.038974        310.18       288.512       3.42903       1.42849       20.6233             0      -4.38609      -7.16495             0       22.3323       5.79319             0       49.2008             0             0      0.203585   0.000144524      0.113367        106981        103118        436096   0.000264795
    0.0389489       310.111       288.513       3.46758       1.47349       20.6566             0      -4.37541      -7.16825             0       22.3527       5.73506             0       49.4013             0             0      0.203558   0.000145358      0.113475        106980        103118        436100   0.000266322
    0.0389239       310.041       288.514       3.50613        1.5185         20.69             0      -4.36473      -7.17156             0        22.373       5.67694             0       49.6019             0             0      0.203531   0.000146191      0.113583        106979        103118        436103   0.000267849
    0.0388989       309.972       288.514       3.54468        1.5635       20.7233             0      -4.35405      -7.17486             0       22.3934       5.61881             0       49.8024             0             0      0.203504   0.000147025      0.113691        106978        103118        436106   0.000269377
    0.0388739       309.902       288.515       3.58323       1.60851       20.7566             0      -4.34337      -7.17817             0       22.4138       5.56068             0        50.003             0             0      0.203477   0.000147858      0.113799        106977        103118        436109   0.000270904
    0.0388488       309.833       288.516       3.62178       1.65351       20.7899             0       -4.3327      -7.18147             0       22.4341       5.50255             0       50.2036             0             0      0.203451   0.000148692      0.113907        106976        103118        436112   0.000272431
    0.0388238       309.763       288.517       3.66033       1.69852       20.8232             0      -4.32202      -7.18478             0       22.4545       5.44443             0       50.4041             0             0      0.203424   0.000149525      0.114015        106975        103117        436116   0.000273959
    0.0387988       309.694       288.518       3.69888       1.74352       20.8565             0      -4.31134      -7.18808             0       22.4749        5.3863             0       50.6047             0             0      0.203397   0.000150359      0.114123        106973        103117        436119   0.000275486
    0.0387738       309.624       288.518       3.73743       1.78852       20.8898             0      -4.30066      -7.19139             0       22.4952       5.32817             0       50.8052             0             0       0.20337   0.000151193      0.114231        106972        103117        436122   0.000277013
    0.0387487       309.555       288.519       3.77597       1.83353       20.9231             0      -4.28998      -7.19469             0       22.5156       5.27004             0       51.0058             0             0      0.203343   0.000152026      0.114339        106971        103117        436125    0.00027854
    0.0387237       309.485        288.52       3.81452       1.87853       20.9565             0       -4.2793        -7.198             0        22.536       5.21192             0       51.2064             0             0      0.203316    0.00015286      0.114447        106970        103117        436129   0.000280068
    0.0386987       309.416       288.521       3.85307       1.92354       20.9898             0      -4.26862       -7.2013             0       22.5563       5.15379             0       51.4069             0             0       0.20329   0.000153693      0.114555        106969        103117        436132   0.000281595
    0.0386737       309.346       288.522       3.89162       1.96854       21.0231             0      -4.25794      -7.20461             0       22.5767       5.09566             0       51.6075             0             0      0.203263   0.000154527      0.114663        106968        103116        436135   0.000283122
    0.0386486       309.277       288.522       3.93017       2.01355       21.0564             0      -4.24726      -7.20791             0       22.5971       5.03753             0        51.808             0             0      0.203236   0.000155361      0.114771        106967        103116        436138    0.00028465
    0.0386236       309.207       288.523       3.96872       2.05855       21.0897             0      -4.23659      -7.21122             0       22.6174        4.9794             0       52.0086             0             0      0.203209   0.000156194      0.114879        106966        103116        436142   0.000286177
    0.0385986       309.138       288.524       4.00727       2.10356        21.123             0      -4.22591      -7.21452             0       22.6378       4.92128             0       52.2092             0             0      0.203182   0.000157028      0.114987        106965        103116        436145   0.000287704
    0.0385736       309.068       288.525       4.04582       2.14856       21.1563             0      -4.21523      -7.21783             0       22.6582       4.86315             0       52.4097             0             0      0.203155   0.000157861      0.115095        106964        103116        436148   0.000289231
    0.0385485       308.999       288.526       4.08437       2.19357       21.1897             0      -4.20455      -7.22113             0       22.6785       4.80502             0       52.6103             0             0      0.203129   0.000158695      0.115203        106963        103116        436151   0.000290759
    0.0385235       308.929       288.526       4.12292       2.23857        21.223             0      -4.19387      -7.22444             0       22.6989       4.74689             0       52.8108             0             0      0.203102   0.000159529      0.115311        106962        103115        436155   0.000292286
    0.0384985        308.86       288.527       4.16146       2.28358       21.2563             0      -4.18319      -7.22775             0       22.7193       4.68877             0       53.0114             0             0      0.203075   0.000160362      0.115419        106961        103115        436158   0.000293813
    0.0384735        308.79       288.528       4.20001       2.32858       21.2896             0      -4.17251      -7.23105             0       22.7397       4.63064             0        53.212             0             0      0.203048   0.000161196      0.115527        106960        103115        436161   0.000295341
    0.0384484       308.721       288.529       4.23856       2.37359       21.3229             0      -4.16183      -7.23436             0         22.76       4.57251             0       53.4125             0             0      0.203021   0.000162029      0.115635        106959        103115        436164   0.000296868
    0.0384234       308.651        288.53       4.27711       2.41859       21.3562             0      -4.15115      -7.23766             0       22.7804       4.51438             0       53.6131             0             0      0.202995   0.000162863      0.115743        106958        103115        436167   0.000298395
    0.0383984       308.582        288.53       4.31566        2.4636       21.3895             0      -4.14047      -7.24097             0       22.8008       4.45626             0       53.8136             0             0      0.202968   0.000163696      0.115851        106957        103114        436171   0.000299922
    0.0383734       308.512       288.531       4.35421        2.5086       21.4228             0       -4.1298      -7.24427             0       22.8211       4.39813             0       54.0142             0             0      0.202941    0.00016453      0.115959        106956        103114        436174    0.00030145
    0.0383483       308.443       288.532       4.39276       2.55361       21.4562             0      -4.11912      -7.24758             0       22.8415          4.34             0       54.2148             0             0      0.202914   0.000165364      0.116067        106955        103114        436177   0.000302977
    0.0383233       308.373       288.533       4.43131       2.59861       21.4895             0      -4.10844      -7.25088             0       22.8619       4.28187             0       54.4153             0             0      0.202887   0.000166197      0.116175        106954        103114        436180   0.000304504
    0.0382983       308.304       288.533       4.46986       2.64361       21.5228             0      -4.09776      -7.25419             0       22.8822       4.22374             0       54.6159             0             0       0.20286   0.000167031      0.116283        106953        103114        436184   0.000306032
    0.0382733       308.234       288.534       4.50841       2.68862       21.5561             0      -4.08708      -7.25749             0       22.9026       4.16562             0       54.8164             0             0      0.202834   0.000167864      0.116391        106952        103114        436187   0.000307559
    0.0382482       308.165       288.535       4.54696       2.73362       21.5894             0       -4.0764       -7.2608             0        22.923       4.10749             0        55.017             0             0      0.202807   0.000168698      0.116499        106951        103113        436190   0.000309086
    0.0382232       308.095       288.536        4.5855       2.77863       21.6227             0      -4.06572       -7.2641             0       22.9433       4.04936             0       55.2176             0             0       0.20278   0.000169532      0.116607        106950        103113        436193   0.000310613
    0.0381982       308.026       288.537       4.62405       2.82363        21.656             0      -4.05504      -7.26741             0       22.9637       3.99123             0       55.4181             0             0      0.202753   0.000170365      0.116715        106949        103113        436197   0.000312141
    0.0381732       307.956       288.537        4.6626       2.86864       21.6894             0      -4.04436      -7.27071             0       22.9841       3.93311             0       55.6187             0             0      0.202726   0.000171199      0.116823        106948        103113        436200   0.000313668
    0.0381481       307.887       288.538       4.70115       2.91364       21.7227             0      -4.03369      -7.27402             0       23.0044       3.87498             0       55.8193             0             0      0.202699   0.000172032      0.116931        106946        103113        436203   0.000315195
    0.0381231       307.817       288.539        4.7397       2.95865        21.756             0      -4.02301      -7.27732             0       23.0248       3.81685             0       56.0198             0             0      0.202673   0.000172866      0.117039        106945        103113        436206   0.000316723
    0.0380981       307.748        288.54       4.77825       3.00365       21.7893             0      -4.01233      -7.28063             0       23.0452       3.75872             0       56.2204             0             0      0.202646     0.0001737      0.117147        106944        103112        436209    0.00031825
    0.0380731       307.678       288.541        4.8168       3.04866       21.8226             0      -4.00165      -7.28393             0       23.0655       3.70059             0       56.4209             0             0      0.202619   0.000174533      0.117255        106943        103112        436213   0.000319777
     0.038048       307.609       288.541       4.85535       3.09366       21.8559             0      -3.99097      -7.28724             0       23.0859       3.64247             0       56.6215             0             0      0.202592   0.000175367      0.117363        106942        103112        436216   0.000321304
     0.038023       307.539       288.542        4.8939       3.13867       21.8892             0      -3.98029      -7.29054             0       23.1063       3.58434             0       56.8221             0             0      0.202565     0.0001762      0.117471        106941        103112        436219   0.000322832
     0.037998       307.474       288.543       4.93293       3.18307       21.9217             0      -3.96915      -7.29354             0       23.1252        3.5278             0       57.0226             0             0      0.202532    0.00017713      0.117606        106940        103112        436221   0.000324535
     0.037973       307.464       288.544       4.97749        3.2205       21.9437             0      -3.95272      -7.29297             0        23.127       3.48958             0        57.223             0             0      0.202424   0.000179161      0.118054        106939        103112        436213   0.000328257
    0.0379479       307.454       288.545       5.02206       3.25794       21.9658             0      -3.93629      -7.29241             0       23.1289       3.45135             0       57.4233             0             0      0.202317   0.000181193      0.118501        106938        103111        436205   0.000331979
    0.0379229       307.444       288.546       5.06662       3.29537       21.9878             0      -3.91985      -7.29184             0       23.1307       3.41312             0       57.6237             0             0      0.202209   0.000183224      0.118949        106936        103111        436197   0.000335701
    0.0378979       307.434       288.547       5.11119       3.33281       22.0099             0      -3.90342      -7.29127             0       23.1326       3.37489             0       57.8241             0             0      0.202101   0.000185256      0.119396        106935        103111        436189   0.000339424
    0.0378729       307.424       288.548       5.15576       3.37024       22.0319             0      -3.88699      -7.29071             0       23.1344       3.33666             0       58.0245             0             0      0.201993   0.000187288      0.119844        106934        103111        436181   0.000343146
    0.0378478       307.414       288.548       5.20032       3.40768        22.054             0      -3.87055      -7.29014             0       23.1363       3.29843             0       58.2248             0             0      0.201886   0.000189319      0.120291        106932        103111        436173   0.000346868
    0.0378228       307.404       288.549       5.24489       3.44512       22.0761             0      -3.85412      -7.28957             0       23.1382        3.2602             0       58.4252             0             0      0.201778   0.000191351      0.120739        106931        103111        436164    0.00035059
    0.0377978       307.394        288.55       5.28945       3.48255       22.0981             0      -3.83769      -7.28901             0         23.14       3.22197             0       58.6256             0             0       0.20167   0.000193382      0.121186        106930        103111        436156   0.000354313
    0.0377728       307.384       288.551       5.33402       3.51999       22.1202             0      -3.82125      -7.28844             0       23.1419       3.18375             0       58.8259             0             0      0.201562   0.000195414      0.121634        106928        103111        436148   0.000358035
    0.0377477       307.374       288.552       5.37859       3.55742       22.1422             0      -3.80482      -7.28788             0       23.1437       3.14552             0       59.0263             0             0      0.201455   0.000197446      0.122082        106927        103110        436140   0.000361757
    0.0377227       307.363       288.553       5.42315       3.59486       22.1643             0      -3.78839      -7.28731             0       23.1456       3.10729             0       59.2267             0             0      0.201347   0.000199477      0.122529        106926        103110        436132   0.000365479