#           y             T         TMean   TPrime2Mean           U_x           U_y           U_z       UMean_x       UMean_y       UMean_z UPrime2Mea... UPrime2Mea... UPrime2Mea... UPrime2Mea... UPrime2Mea... UPrime2Mea...            O2           H2O          C3H8             p         pMean   pPrime2Mean           CO2
  1.11022e-19       289.409       288.052      0.113079       26.6441  -4.91186e-15             0       23.0294  -4.74827e-16             0        13.046  -5.06426e-16             0   1.08883e-16             0             0      0.229991   4.33598e-07   3.50393e-05        106326        103172        395866   7.94433e-07
  0.000500501        289.42       288.059      0.127983       26.6219    -0.0489407             0       23.0291    0.00801336             0       13.0496     -0.168324             0      0.038144             0             0      0.229967   2.16627e-06   0.000119537        106331        103172        395911   3.96901e-06
     0.001001       289.431       288.067      0.145263       26.5997    -0.0979131             0       23.0288     0.0160252             0       13.0534      -0.33667             0     0.0764209             0             0      0.229943   3.94285e-06   0.000205298        106335        103172        395956   7.22403e-06
    0.0015015       289.617       288.152       1.34897       26.6262     -0.162728             0       23.0328     0.0232691             0       13.1225     -0.515932             0      0.181015             0             0      0.229723   2.76283e-05   0.000920873        106347        103171        395759   5.06201e-05
     0.002002       289.813       288.239       2.64315       26.6526     -0.227617             0       23.0368     0.0305134             0       13.1918     -0.695161             0      0.286063             0             0      0.229498   5.20541e-05    0.00164714        106359        103171        395564   9.53729e-05
    0.0025025       292.234       288.716       26.4675       26.6252     -0.311143             0       23.0394      0.037843             0       13.3117     -0.866308             0      0.504272             0             0      0.228226   0.000260847    0.00503523        106375        103171        395871   0.000477921
     0.003003       294.751       289.198       51.0697       26.5985     -0.394796             0       23.0422     0.0451663             0        13.433      -1.03799             0      0.724009             0             0      0.226933   0.000475375    0.00845458        106391        103171        396176   0.000870975
    0.0035035        312.99       290.659       204.524       26.6853     -0.499459             0       23.0707     0.0514575             0       13.8016      -1.29832             0       1.19685             0             0      0.222207    0.00163988     0.0170536        106399        103170        396333    0.00300457
     0.004004        331.67       292.145       377.863       26.7724     -0.602524             0       23.0993     0.0578182             0       14.1714      -1.55888             0       1.67183             0             0      0.217427    0.00282816      0.025641        106407        103169        396500    0.00518172
    0.0045045       405.052       296.773       3016.87       26.8992     -0.507516             0       23.1457     0.0727871             0       14.6926      -1.84646             0       2.41341             0             0      0.206027     0.0069644     0.0327758        106410        103168        397946     0.0127601
   0.00500501       481.533       301.517        5862.1       27.0256     -0.407592             0       23.1933     0.0886335             0       15.2253       -2.1247             0       3.16523             0             0      0.194261     0.0112708      0.039752        106414        103168        399375     0.0206502
   0.00550551       864.823       317.655       29122.5       27.1018      0.179104             0       23.3537       0.19135             0       16.9033      -1.47841             0       4.93107             0             0      0.146327     0.0324228     0.0310209        106414        103166        399180     0.0594047
   0.00600601       1247.44       333.763       52369.9       27.1621      0.771583             0       23.5126      0.293593             0       18.5741      -0.84463             0       6.68794             0             0     0.0984322      0.053558     0.0222896        106414        103165        398967     0.0981282
   0.00650651       1574.68       347.431       74537.1       25.9201       1.84024             0       23.5505      0.356831             0       19.6594      -1.24094             0       7.70649             0             0     0.0538083     0.0733055      0.013545        106413        103163        397256      0.134309
   0.00700701       1897.35       360.927       96407.4       24.6767       2.90431             0       23.5834      0.418804             0       20.7312      -1.64457             0       8.70663             0             0    0.00974442     0.0927996    0.00496814        106411        103161        395571      0.170026
   0.00750751       1898.69        362.26       97354.8       23.3353       3.64536             0       23.2702      0.391655             0       20.8467      -2.56314             0       8.41027             0             0    0.00511886     0.0944402    0.00821193        106413        103160        395719      0.173032
   0.00800801          1900       363.582       98274.2       22.0191       4.39339             0       22.9498      0.365227             0       20.9786      -3.46132             0        8.1223             0             0   0.000563567     0.0960522     0.0114438        106414        103159        395860      0.175986
   0.00850851          1900       364.208       97466.2       22.2547       5.57091             0       22.1959      0.383151             0       22.1112      -3.10535             0       8.35018             0             0    0.00032987     0.0959068     0.0139426        106415        103158        395491      0.175719
   0.00900901          1900        364.85       96676.4       22.4997        6.7482             0       21.4337      0.401041             0       23.2563      -2.74717             0       8.57317             0             0   9.94987e-05     0.0957638     0.0164018        106416        103157        395121      0.175457
   0.00950951          1900       366.341         96881       23.2603       7.91283             0       20.2216      0.417097             0       25.0898      -2.26868             0       8.52987             0             0    5.0561e-05     0.0957559     0.0166958        106419        103157        394704      0.175443
      0.01001          1900       367.856       97135.5       24.0165        9.0691             0       19.0096      0.432805             0       26.9567      -1.78352             0        8.4829             0             0   2.57664e-06     0.0957484     0.0169821        106422        103157        394284      0.175429
    0.0105105       1899.91       370.543       99839.6       24.5591       9.81543             0       17.8009      0.431528             0       30.4647     -0.971447             0       8.25615             0             0   1.30474e-06     0.0957584     0.0168908        106424        103157        393696      0.175447
     0.011011       1899.83       373.188        102475       25.0894       10.5524             0       16.6018      0.428959             0       33.9662     -0.178743             0       8.03475             0             0   6.01594e-08     0.0957659     0.0168241        106426        103157        393112      0.175461
    0.0115115       1899.71       373.959        102065       25.0699       10.8734             0       15.8306      0.368943             0       37.1761     -0.246893             0       8.05134             0             0   3.01188e-08     0.0956671     0.0178506        106428        103157        392659       0.17528
     0.012012       1899.54       374.672        101548       25.0507       11.1813             0       15.0705      0.308635             0       40.3491     -0.338239             0       8.07479             0             0   7.89603e-10     0.0955627     0.0189347        106431        103157        392209      0.175089
    0.0125125       1897.62       372.972         96669       25.0426       10.9513             0       14.7585      0.236439             0       42.0218      -1.37293             0       8.37746             0             0   3.93585e-10     0.0952326       0.02236        106434        103157        391887      0.174484
     0.013013       1895.49       371.251       91776.7       25.0471       10.7153             0       14.4537      0.164314             0       43.6718      -2.40812             0        8.6904             0             0   7.76119e-12     0.0948893     0.0259206        106437        103156        391569      0.173855
    0.0135135       1885.46       368.735       86405.1       25.5194       10.2547             0        14.415     0.0949051             0       44.4725      -3.46227             0       9.38805             0             0   3.86042e-12     0.0940488     0.0345468        106441        103155        391442      0.172315
     0.014014       1875.58       366.164       80997.8       26.0027       9.79182             0       14.3828     0.0259905             0       45.2517      -4.51307             0       10.0964             0             0   6.79246e-14     0.0931995      0.043263        106444        103154        391320      0.170759
    0.0145145          1871       361.659       74352.8       26.8652       9.24943             0       14.5778     -0.025755             0       45.2844      -5.44763             0       11.1773             0             0   3.37335e-14     0.0920431     0.0551057        106449        103152        391347       0.16864
     0.015015       1866.27       357.133       67721.2       27.7131       8.70804             0       14.7798    -0.0774333             0       45.3182      -6.37829             0       12.2714             0             0   5.59696e-16     0.0908744     0.0670794        106455        103150        391379      0.166499
    0.0155155       1856.95        351.89       61526.3       28.0844         8.199             0       15.2079     -0.126936             0       45.3877      -7.18266             0       13.7946             0             0   2.77588e-16     0.0893073     0.0832932        106460        103148        391554      0.163628
     0.016016        1846.4       346.673       55376.2       28.4232       7.69248             0       15.6436     -0.175835             0       45.4661      -7.97308             0       15.3243             0             0   4.43539e-18     0.0876967     0.0999567        106466        103145        391741      0.160677
    0.0165165       1799.02       342.265       50580.7       27.7782       7.26187             0       16.3094     -0.206468             0       45.8147      -8.34118             0       17.0505             0             0    2.1941e-18     0.0847705      0.130224        106474        103142        392318      0.155315
     0.017017       1751.16       337.865       45797.5       27.1148       6.83564             0       16.9833     -0.235347             0       46.1826      -8.66442             0       18.7787             0             0   3.41436e-20     0.0818181      0.160756        106482        103139        392915      0.149906
    0.0175175       1689.78        333.71       41363.5        25.928       6.53383             0       17.8868     -0.214401             0       47.0977      -7.71324             0       20.5637             0             0   1.85034e-19     0.0781233      0.198805        106491        103135        394096      0.143137
     0.018018       1628.69       329.552       36932.3       24.7427       6.23909             0       18.7857     -0.191975             0       48.0319      -6.72473             0       22.3514             0             0   6.84775e-18     0.0744162      0.236974        106500        103131        395301      0.136344
    0.0185185       1575.48        325.33       32576.9       23.5992       6.13367             0       19.5583       -0.1299             0       49.4775      -4.73631             0       24.2085             0             0   1.87883e-16     0.0703787      0.278385        106507        103126        397149      0.128947
     0.019019       1522.62       321.106       28229.6       22.4592       6.03672             0       20.3159    -0.0688519             0       50.8987      -2.74835             0       26.0702             0             0   7.33819e-15     0.0663399      0.319806        106514        103122        399024      0.121547
    0.0195195       1478.52       316.824       24087.5       21.4076       6.15428             0       20.6927    -0.0338132             0       51.7007     -0.772108             0       28.0463             0             0   1.90921e-13     0.0622692      0.361474        106521        103117        401562      0.114089
      0.02002       1434.92       312.559       19964.7       20.3644       6.27276             0       21.0589   0.000220575             0       52.4243       1.19108             0       30.0355             0             0   6.48245e-12     0.0582441      0.402675        106528        103112        404123      0.106714
    0.0205205       1403.33        308.69       16306.2       19.5239       6.41325             0        21.174     0.0101384             0       51.2655       2.84113             0       32.3416             0             0   1.59365e-10     0.0553149      0.432632        106535        103107        407223      0.101347
     0.021021       1371.86       304.863       12689.6       18.6819       6.55465             0       21.2809     0.0190878             0       50.0398       4.47475             0       34.6584             0             0    3.6815e-09      0.052441      0.462023        106541        103102        410331     0.0960817
    0.0215215        1343.1       301.999       10029.9       17.8063       6.71678             0       21.2018    0.00594787             0       47.2846       5.73365             0       37.2209             0             0   8.40546e-08     0.0508305      0.478479        106549        103097        413628     0.0931309
     0.022022          1314       299.174       7414.61       16.9115       6.89056             0       21.1127   -0.00880709             0       44.5054       6.97408             0       39.7874             0             0   1.09424e-06     0.0492691      0.494428        106556        103091        416933     0.0902702
    0.0225225       1277.59       297.195        5766.5       15.6013        7.3174             0       20.8055    -0.0586517             0       41.2016       7.81312             0       42.4414             0             0   2.23067e-05     0.0487742      0.499372        106565        103086        420379     0.0893635
     0.023023       1240.29       295.243       4148.29       14.2828       7.74254             0       20.4862     -0.110602             0       37.9311       8.63174             0       45.0954             0             0   9.83622e-05     0.0482859      0.504011        106575        103080        423832     0.0884688
    0.0235235       1184.55       293.858       3149.88       12.7913       8.13212             0       19.9172     -0.206232             0       35.3497       9.02678             0       47.7519             0             0    0.00131181     0.0479325      0.502347        106587        103075        427401     0.0878213
     0.024024       1127.36       292.494       2170.26       11.3237       8.49332             0       19.3443     -0.303917             0        32.844       9.41385             0       50.4095             0             0    0.00275535     0.0474987      0.500509        106599        103070        430979     0.0870264
    0.0245245       1041.45       291.542       1563.23       10.3322       8.29168             0       18.6934     -0.442368             0       31.8374       9.64281             0       53.0898             0             0     0.0087621     0.0454692      0.495223        106612        103065        434718      0.083308
     0.025025        954.27       290.607       970.548       9.37715       8.05735             0       18.0472     -0.581866             0       30.8577       9.87835             0        55.776             0             0     0.0152733     0.0432969      0.489209        106625        103060        438464      0.079328
    0.0255255       843.185       290.002       650.619       9.11561       7.20187             0       17.4893     -0.741248             0       30.3899        10.239             0       58.5732             0             0     0.0313697     0.0384115      0.469366        106640        103054        442342     0.0703771
     0.026026       732.388        289.41       340.513       8.87092       6.34036             0       16.9322     -0.901586             0       29.8961       10.5951             0       61.3738             0             0     0.0479553     0.0334402      0.448278        106656        103049        446224     0.0612686
    0.0265265       626.864       289.071       209.501       8.93359       5.36887             0        16.391      -1.07936             0       28.9288       10.8703             0       64.2348             0             0     0.0734594     0.0269008      0.404504        106670        103043        450187     0.0492872
     0.027027         523.2       288.742       83.6083       8.98975       4.41251             0       15.8445      -1.25853             0       27.9461       11.1286             0       67.0955             0             0     0.0989464     0.0204149      0.360255        106685        103037        454149     0.0374039
    0.0275275       452.135       288.589       47.4111       8.93176       3.72141             0        15.206      -1.46222             0       26.6937       11.0926             0       69.9508             0             0      0.124133     0.0148669      0.307688        106700        103030        458112      0.027239
     0.028028       383.185       288.442       12.9074        8.8654       3.04578             0       14.5628      -1.66717             0       25.4512       11.0441             0       72.7947             0             0      0.148798    0.00945674      0.255975        106715        103023        462067     0.0173265
    0.0285285       349.871       288.387       6.95304       8.65792       2.63095             0       13.8391      -1.89311             0       24.3765       10.7838             0       75.4459             0             0      0.164672    0.00636969      0.218643        106732        103016        465907     0.0116705
     0.029029       317.877       288.334       1.31167       8.45086       2.22287             0       13.1114      -2.11965             0       23.3313       10.5213             0       78.0689             0             0       0.18001    0.00339414      0.182502        106748        103009        469716     0.0062187
    0.0295295       307.309       288.313      0.754302       8.25055       1.92436             0       12.3183      -2.35579             0       22.7632       10.2214             0        80.234             0             0      0.186624    0.00222976      0.165699        106764        103002        473014    0.00408534
      0.03003       297.207       288.292      0.227839       8.05734       1.62388             0       11.5215      -2.59197             0        22.239       9.93116             0       82.3548             0             0      0.192972    0.00111285      0.149564        106779        102995        476264    0.00203894
    0.0305305       294.397       288.283      0.185504       7.97521       1.29267             0       10.6662      -2.82884             0       22.4029       9.79122             0        83.781             0             0      0.195155   0.000739518      0.143908        106794        102989        478773    0.00135494
     0.031031       291.714       288.275      0.145504        7.9027      0.955429             0       9.80679      -3.06477             0       22.6202       9.66643             0       85.1572             0             0      0.197247   0.000382328      0.138481        106808        102983        481227   0.000700496
    0.0315315       290.964       288.272      0.140817       7.97563      0.527077             0       8.88364      -3.28638             0       23.6448        9.7709             0        85.779             0             0      0.197969   0.000269283      0.136503        106817        102977        482861   0.000493377
     0.032032       290.244       288.269      0.136307       8.05591     0.0908325             0       7.95818      -3.50686             0       24.7068       9.88544             0       86.3572             0             0      0.198686   0.000160802        0.1345        106826        102972        484450    0.00029462
    0.0325325        289.96       288.268      0.134371       8.24379     -0.460821             0       6.99889      -3.71066             0       26.3163       10.1475             0       86.2985             0             0      0.199328   0.000119068      0.132138        106832        102968        485404   0.000218154
     0.033033       289.685       288.267      0.132511       8.43357      -1.01756             0       6.03949      -3.91303             0       27.9162       10.4089             0       86.2055             0             0      0.200008   7.87491e-05      0.129592        106837        102964        486341   0.000144283
    0.0335335       289.547       288.266      0.131709       8.65024      -1.64629             0       5.07853      -4.09519             0       29.3803       10.6606             0       85.6273             0             0      0.201238    5.8471e-05      0.124452        106839        102961        487046    0.00010713
     0.034034       289.416       288.266      0.131006       8.85503      -2.27026             0       4.11798      -4.27578             0       30.7851       10.8964             0       85.0177             0             0      0.202522   3.88172e-05      0.119071        106842        102958        487753   7.11204e-05
    0.0345345       289.375       288.268      0.131648       8.89696        -2.829             0       3.16294      -4.43487             0       31.3782       10.9141             0       83.9779             0             0      0.204548   2.77204e-05      0.110377        106845        102956        488478    5.0789e-05
     0.035035       289.337       288.269      0.132383       8.91257      -3.37095             0       2.20797      -4.59253             0       31.8945       10.9028             0       82.9035             0             0      0.206588   1.70271e-05      0.101619        106847        102955        489200   3.11968e-05
    0.0355355        289.36       288.272      0.134346       8.57853      -3.68986             0       1.25389      -4.73143             0       31.3915       10.5063             0       81.3674             0             0       0.20881   1.16941e-05     0.0920131        106852        102954        489873   2.14257e-05
     0.036036       289.385       288.274      0.136373       8.22579      -3.99555             0      0.299659      -4.86916             0       30.8502       10.0793             0        79.791             0             0      0.210989   6.58572e-06     0.0825898        106857        102954        490518   1.20663e-05
    0.0365365        289.43       288.277       0.13923       7.63201       -4.1308             0     -0.656455      -4.99182             0       29.8158        9.2603             0       77.6955             0             0       0.21262   4.37349e-06     0.0755219        106862        102955        490796   8.01305e-06
     0.037037       289.475       288.279      0.142158       7.04828      -4.26867             0      -1.61213       -5.1127             0       28.8106       8.42973             0       75.5598             0             0      0.214184   2.26009e-06     0.0687439        106866        102957        491018    4.1409e-06
    0.0375375       289.518       288.281      0.145965       6.59019      -4.43928             0      -2.56223      -5.21133             0       28.1699       7.45489             0       72.9217             0             0       0.21491   1.38334e-06     0.0655949        106868        102960        490551   2.53454e-06
     0.038038       289.562       288.282       0.14984       6.16086       -4.6141             0      -3.51023       -5.3071             0       27.6098       6.50109             0       70.2498             0             0      0.215587   5.57632e-07     0.0626599        106870        102964        490015   1.02169e-06
    0.0385385       289.605       288.282      0.154552       6.08103      -4.84011             0      -4.43259       -5.3682             0       28.0309       5.80316             0       67.1667             0             0      0.215664   3.52424e-07     0.0623275        106868        102969        488652   6.45706e-07
     0.039039       289.647       288.282      0.159343       6.02842      -5.05925             0      -5.34978      -5.42536             0       28.5527       5.15323             0       64.0608             0             0      0.215719    1.5861e-07      0.062089        106866        102974        487227   2.90603e-07
    0.0395395       289.684        288.28      0.165076        6.2975      -5.19716             0      -6.20571      -5.43611             0       30.2664       5.07058             0       60.6857             0             0      0.215519   9.94826e-08     0.0629598        106860        102981        485061   1.82271e-07
      0.04004       289.719       288.277      0.170742       6.57757      -5.32405             0      -7.05243      -5.44216             0       32.0711       5.04282             0       57.2971             0             0      0.215307   4.39977e-08     0.0638846        106855        102988        482850    8.0612e-08
    0.0405405       289.741       288.274      0.175626       6.98412       -5.3242             0      -7.79326       -5.3943             0       34.9223       5.64621             0       53.7529             0             0      0.214951   3.04012e-08     0.0654299        106851        102997        480109   5.57007e-08
     0.041041       289.761       288.271      0.180248       7.38796      -5.31704             0      -8.52111      -5.34115             0       37.8255       6.28909             0       50.2001             0             0      0.214586   1.73965e-08     0.0670165        106848        103006        477340   3.18737e-08
    0.0415415       289.775       288.269      0.181928        7.7615      -5.22818             0      -9.10354      -5.22883             0       41.3118        7.3741             0       46.5505             0             0      0.214115   1.10169e-08     0.0690652        106852        103015        474250    2.0185e-08
     0.042042       289.788       288.268      0.183526       8.13104      -5.13481             0      -9.67074      -5.11097             0          44.8        8.4714             0       42.8995             0             0       0.21364   5.01923e-09     0.0711299        106856        103025        471150   9.19616e-09
    0.0425425       289.802       288.268      0.184237       8.45686      -4.99233             0      -10.0718      -4.93267             0       48.3102       9.70276             0       39.2339             0             0      0.213125    3.1871e-09     0.0733681        106871        103035        467939   5.83935e-09
     0.043043       289.817       288.268      0.184962       8.77688      -4.84566             0      -10.4573      -4.74847             0       51.8059       10.9189             0       35.5788             0             0      0.212623   1.46794e-09     0.0755529        106886        103044        464730   2.68953e-09
    0.0435435       289.833       288.267      0.185842       9.03515      -4.65445             0      -10.6774      -4.50164             0       55.1476       11.9734             0       32.0352             0             0      0.212251   9.49426e-10     0.0771707        106914        103053        461530   1.73953e-09
     0.044044        289.85       288.266      0.186478        9.2794      -4.45778             0      -10.8821       -4.2496             0       58.5093       13.0023             0       28.5127             0             0      0.211903   4.64209e-10     0.0786813        106943        103062        458347   8.50517e-10
    0.0445445       289.867       288.263      0.184581       9.37836      -4.20461             0      -10.9278      -3.94345             0       62.0797       13.7648             0       25.2099             0             0      0.211811   3.24027e-10     0.0790812        106982        103071        455335   5.93678e-10
     0.045045       289.884       288.259      0.182527       9.44847      -3.94152             0      -10.9592       -3.6334             0       65.7356        14.493             0       21.9303             0             0      0.211755   1.89849e-10     0.0793253        107022        103079        452356   3.47838e-10
    0.0455455       289.896       288.254      0.178888       9.22691      -3.57819             0      -10.8454      -3.28394             0       70.2549       14.8735             0       18.8866             0             0      0.212061   1.16366e-10     0.0779943        107067        103087        449715   2.13203e-10