#           y             T         TMean   TPrime2Mean           U_x           U_y           U_z       UMean_x       UMean_y       UMean_z UPrime2Mea... UPrime2Mea... UPrime2Mea... UPrime2Mea... UPrime2Mea... UPrime2Mea...            O2           H2O          C3H8             p         pMean   pPrime2Mean           CO2
  1.11022e-19       290.162        288.14      0.204267        33.597  -6.97279e-15             0       20.4913  -5.70071e-16             0       27.1498  -4.50847e-15             0   3.00413e-16             0             0      0.229786   3.57721e-05   0.000564656        106481        103201        391881   6.55412e-05
  0.000500501       292.295       288.209       1.43013       33.5785     -0.198895             0       20.4934     0.0576811             0       27.1954    -0.0499804             0     0.0648129             0             0      0.229376   0.000136917    0.00130609        106481        103201        391822   0.000250858
     0.001001       294.453       288.279       2.70631       33.5605     -0.397707             0       20.4956      0.115361             0       27.2414    -0.0999695             0      0.129761             0             0      0.228962   0.000239717    0.00205283        106481        103201        391763   0.000439205
    0.0015015       309.433       288.675       29.0915       33.7727     -0.555343             0       20.5059      0.172312             0       27.4681     -0.154324             0      0.262432             0             0      0.225988     0.0011677    0.00545274        106463        103201        391504    0.00213944
     0.002002        324.61       289.075       56.8349        33.986     -0.712019             0       20.5162      0.229274             0       27.6962     -0.208576             0      0.395531             0             0      0.222981    0.00210884    0.00886146        106444        103201        391245    0.00386379
    0.0025025       389.017       290.537       422.751       34.4655      -0.62964             0        20.539      0.288994             0        28.284     -0.237323             0      0.635089             0             0      0.211731    0.00632705     0.0144644        106410        103200        390922     0.0115923
     0.003003       455.366       292.032       841.112       34.9545     -0.547563             0       20.5622       0.34872             0       28.8791     -0.265751             0      0.875512             0             0      0.200222       0.01066     0.0200158        106376        103200        390599      0.019531
    0.0035035       843.248       298.889       9947.84       37.0289     -0.515487             0       20.6336      0.409449             0       30.6759     -0.241276             0       1.25928             0             0      0.145822     0.0339969     0.0170282        106362        103199        390321     0.0622886
     0.004004       1230.71       305.745       19064.3       39.1054     -0.484793             0       20.7051      0.470217             0       32.4813      -0.21684             0       1.64447             0             0     0.0914913     0.0573035     0.0140532        106348        103199        390042      0.104991
    0.0045045       1566.11        312.51       29388.8       41.4425       -0.6256             0       20.7978      0.535708             0       35.3452     -0.197285             0       2.20723             0             0     0.0456468     0.0768632     0.0126454        106354        103198        389685      0.140828
   0.00500501       1898.06       319.225       39636.4       43.7697     -0.767815             0         20.89      0.601112             0       38.2062     -0.179286             0        2.7708             0             0   0.000259536     0.0962175     0.0113589        106361        103198        389329      0.176288
   0.00550551        1888.9       320.948       42277.9        45.121       -1.0495             0       20.9241      0.657897             0       40.7888     -0.315274             0       3.41446             0             0   0.000129115     0.0952264     0.0220774        106368        103197        389095      0.174473
   0.00600601       1879.65       322.659       44892.8       46.4634      -1.32955             0       20.9567      0.714772             0       43.3567     -0.449341             0       4.05772             0             0   2.57541e-07     0.0942293     0.0328512        106375        103196        388862      0.172646
   0.00650651       1862.92       323.314       45325.8       47.0659      -1.47473             0       20.8572      0.779127             0       44.7139     -0.425278             0       4.66872             0             0   1.27988e-07     0.0927328     0.0481795        106385        103195        388598      0.169904
   0.00700701       1846.24       323.955       45725.2       47.6644      -1.62406             0       20.7555      0.843539             0       46.0589      -0.39825             0       5.27946             0             0   2.47176e-10     0.0912335     0.0635364        106395        103195        388336      0.167157
   0.00750751       1833.67       323.586       43770.2       47.9916       -2.0659             0       20.4893      0.911912             0       46.5375     -0.162345             0       5.87251             0             0   1.22708e-10     0.0895394      0.080908        106402        103194        388127      0.164053
   0.00800801       1821.31       323.217       41816.8       48.3349      -2.50952             0       20.2208      0.980239             0       47.0143     0.0754344             0       6.46507             0             0   2.29126e-13     0.0878563     0.0981653        106410        103193        387914      0.160969
   0.00850851       1821.35       322.857       39957.8       49.6706      -3.06302             0       19.8139       1.04574             0       47.3824      0.428554             0       7.02681             0             0   1.13629e-13     0.0868586      0.108399        106409        103193        387449      0.159141
   0.00900901       1821.37       322.536       38175.4        51.012      -3.61924             0       19.4055       1.11085             0       47.7528      0.778019             0       7.59059             0             0   2.09357e-16     0.0858705      0.118536        106408        103192        386983      0.157331
   0.00950951       1820.32       324.409       40574.4       52.6606      -4.32404             0       18.9154       1.15532             0       48.2509      0.928096             0       8.26528             0             0   1.04638e-16     0.0853998      0.123363        106402        103191        386518      0.156468
      0.01001       1818.18       326.264       42945.9       54.2912      -5.02653             0       18.4255       1.19954             0       48.7592        1.0766             0       8.94426             0             0    4.8886e-18     0.0848876      0.128617        106395        103190        386050       0.15553
    0.0105105       1762.93       327.241       43974.2       55.0364      -5.61557             0       17.9406       1.23231             0       49.7669        1.1482             0       9.83396             0             0    1.4865e-16     0.0823376      0.154803        106380        103189        385450      0.150858
     0.011011       1707.05       328.169       44920.6       55.7469      -6.19886             0       17.4561        1.2646             0       50.7947       1.21305             0       10.7241             0             0   5.34154e-16     0.0797596      0.181274        106365        103188        384852      0.146134
    0.0115115       1623.54       326.894       42231.1       54.9127      -6.52605             0       16.9869       1.27564             0       52.7173      0.977791             0       11.6341             0             0   1.16663e-14     0.0759415      0.220473        106346        103187        384369      0.139139
     0.012012       1540.89        325.64       39591.8       54.0584       -6.8452             0       16.5176       1.28664             0        54.672      0.742903             0       12.5445             0             0   3.52933e-14     0.0721742       0.25915        106328        103185        383895      0.132237
    0.0125125       1492.89       325.219       38992.1       52.3821      -6.83679             0       16.0418       1.29617             0       57.9328      0.523035             0       13.4708             0             0   5.67047e-13     0.0704708      0.276621        106309        103184        383778      0.129116
     0.013013       1445.48       324.815       38431.8       50.7028      -6.82742             0       15.5678       1.30527             0       61.2029      0.298147             0       14.4025             0             0   1.55127e-12     0.0688255      0.293497        106291        103183        383668      0.126101
    0.0135135       1420.18       325.065       39351.2       48.9114      -6.78148             0       15.1568       1.29815             0       64.8205     -0.114781             0       15.5387             0             0   1.94859e-11     0.0693537      0.288044        106284        103181        383774      0.127069
     0.014014       1395.58       325.331       40307.5       47.1332      -6.73973             0       14.7487       1.29046             0       68.4219     -0.534741             0       16.6826             0             0   4.03405e-11     0.0699145      0.282255        106276        103179        383889      0.128096
    0.0145145       1395.63        326.21       42545.9       45.8154      -6.84335             0        14.441       1.26287             0       71.4585       -1.1988             0       18.0928             0             0    1.6256e-10     0.0716081      0.264831        106281        103177        384268      0.131199
     0.015015       1397.32        327.09         44797       44.5178      -6.94287             0       14.1345       1.23542             0       74.4772      -1.86087             0       19.5059             0             0   2.86058e-10     0.0733295      0.247121        106285        103175        384653      0.134353
    0.0155155       1452.63       328.044       47457.5       43.8747      -6.90973             0       13.8699       1.21255             0       76.9195      -2.45891             0        21.015             0             0   4.50879e-10     0.0759542      0.220144        106295        103173        385232      0.139162
     0.016016       1508.79       328.986       50095.6       43.2682       -6.8962             0       13.6058       1.19017             0       79.3487       -3.0576             0       22.5232             0             0   6.60889e-10     0.0785654      0.193307        106304        103170        385819      0.143946
    0.0165165        1590.9       329.548       52061.3       43.7702      -7.47627             0       13.3618       1.18253             0       81.3841      -3.67612             0       24.0076             0             0   2.23784e-09     0.0807658      0.170734        106316        103169        386618      0.147978
     0.017017       1672.13       330.098       53999.1       44.3404      -8.05627             0       13.1184       1.17573             0       83.3967       -4.2905             0        25.491             0             0   4.12019e-09     0.0829251      0.148584        106327        103167        387420      0.151934
    0.0175175       1728.34        330.28       55146.5       46.8458      -8.63442             0       12.8902       1.19295             0       84.7637      -4.78744             0       26.9466             0             0   1.46795e-08      0.083918      0.138444        106341        103165        388278      0.153753
     0.018018       1783.73       330.452         56269       49.3416      -9.20971             0       12.6617       1.21109             0       86.0821      -5.28031             0       28.4018             0             0   2.63613e-08     0.0849044       0.12837        106355        103163        389137      0.155561
    0.0185185       1817.21       330.341       56722.7       51.5785      -9.70828             0       12.4232       1.25379             0       86.1004      -5.66433             0       29.8461             0             0   6.81036e-08     0.0857172      0.120057        106369        103161        390021       0.15705
     0.019019       1850.18       330.222       57157.9       53.7252      -10.1798             0       12.1837       1.29757             0       86.0581       -6.0369             0       31.2891             0             0   1.12501e-07     0.0865274       0.11177        106383        103160        390906      0.158534
    0.0195195       1870.25       329.911       57120.7       53.5892      -9.96765             0       11.9193       1.36851             0       84.4805      -6.11985             0       32.6976             0             0   2.24124e-07      0.087273      0.104132        106398        103158        391839        0.1599
      0.02002       1889.73       329.593       57066.8       53.3937      -9.71271             0       11.6547       1.44049             0       82.8786       -6.1989             0       34.1069             0             0   3.63684e-07     0.0880074     0.0966099        106412        103156        392757      0.161246
    0.0205205       1894.87       329.108       56611.2       51.7701      -8.43189             0       11.3832       1.53744             0       80.6957      -6.18463             0       35.5332             0             0   1.17375e-06     0.0884711     0.0918531        106424        103154        393324      0.162096
     0.021021        1899.8       328.612       56133.7       50.1755      -7.16767             0       11.1121       1.63587             0        78.491      -6.15158             0       36.9585             0             0   2.97691e-06     0.0889236     0.0872075        106436        103153        393908      0.162925
    0.0215215        1899.8       327.858       55157.2       49.2424      -6.28203             0       10.8514       1.76799             0       75.7896      -5.69031             0       38.3604             0             0   2.74322e-05     0.0891184     0.0850987        106448        103152        394890      0.163282
     0.022022       1899.81       327.092       54155.2       48.3546      -5.40743             0       10.5928       1.90125             0       73.1184      -5.22609             0       39.7653             0             0   6.63888e-05     0.0893047      0.083015        106459        103150        395830      0.163623
    0.0225225        1899.9       326.061       52601.8       48.4486       -4.7725             0       10.3788        2.0593             0       71.1057      -4.69787             0       41.2359             0             0   0.000420419     0.0893036     0.0814788        106455        103149        395886      0.163621
     0.023023       1898.76       325.013       51002.2       48.4571      -4.08092             0       10.1661       2.21889             0       69.0461      -4.14704             0       42.7109             0             0    0.00101552     0.0891926     0.0800229        106452        103148        395981      0.163417
    0.0235235       1871.86       323.609       48446.3         46.69      -2.21453             0       9.98026       2.41051             0       66.0165      -3.12728             0       44.2751             0             0     0.0066103     0.0868016     0.0802325        106456        103147        396902      0.159037
     0.024024       1837.28       322.085       45661.4       44.7786        -0.219             0       9.79328       2.60521             0       62.8095      -2.04291             0       45.8633             0             0     0.0131602     0.0839793     0.0807174        106461        103147        397933      0.153866
    0.0245245        1650.6       318.164       38335.4       40.0061       4.33788             0       9.58287        2.8612             0       56.0842      0.322752             0       47.9269             0             0     0.0386539     0.0726018     0.0866641        106499        103147        401149       0.13302
     0.025025       1457.09       314.141       30870.9       35.2726       8.86737             0       9.37392       3.11783             0       49.4171       2.67564             0       50.0056             0             0     0.0648113     0.0609267     0.0927805        106536        103147        404267      0.111629
    0.0255255       1133.88       308.184         20774         31.28       12.8763             0        9.1925        3.3868             0       43.8557       4.78586             0       52.3694             0             0      0.103581     0.0435961       0.10212        106563        103146        405509     0.0798762
     0.026026       817.094       302.344       10950.9       27.4171       16.7361             0        9.0138       3.65446             0        38.453       6.85352             0        54.701             0             0      0.141518     0.0266408      0.111224        106589        103146        406662     0.0488108
    0.0265265       617.166       298.643       6120.54       25.9169       17.8763             0        8.8847       3.89818             0       35.9425       8.14551             0       56.4458             0             0       0.16429     0.0165266      0.116042        106611        103146        406181     0.0302798
     0.027027       425.559       295.081       1525.35       24.4414        18.966             0       8.75631       4.14173             0       33.5017       9.44103             0       58.1687             0             0      0.186122    0.00683327      0.120624        106633        103146        405657     0.0125198
    0.0275275       379.747       293.952        1050.3       23.4006        19.169             0       8.64029       4.38223             0       32.2834       10.7985             0       59.5101             0             0      0.191499    0.00451243      0.121071        106667        103146        404368    0.00826762
     0.028028       335.796       292.859       596.085       22.3606       19.3592             0       8.52384        4.6229             0       31.1205       12.1702             0       60.8403             0             0      0.196664    0.00228574       0.12147        106702        103146        403071    0.00418789
    0.0285285       323.236       292.385       493.193       21.3355       19.3309             0       8.40018       4.86644             0       30.8919        13.783             0       61.9824             0             0       0.19827    0.00164606      0.121058        106750        103146        401641    0.00301589
     0.029029        311.15       291.921       393.372       20.3026       19.3084             0        8.2756       5.10997             0       30.7015       15.3983             0       63.1087             0             0      0.199827    0.00103045      0.120606        106796        103147        400197    0.00188798
    0.0295295       306.759       291.635       343.428       19.1446       19.3815             0       8.13611       5.35334             0        31.129       17.0541             0       63.9786             0             0      0.200609   0.000805717      0.119513        106815        103147        398512    0.00147622
      0.03003       302.502       291.354       294.611       17.9902       19.4673             0       7.99602       5.59658             0       31.5817       18.6997             0       64.8308             0             0      0.201383   0.000587999      0.118382        106832        103148        396798    0.00107732
    0.0305305       300.346       291.158        263.45       16.8926       19.7533             0       7.84648       5.83759             0       32.4287       20.1866             0       65.4078             0             0      0.202036   0.000480204      0.116652        106820        103149        394622   0.000879823
     0.031031       298.229       290.965       232.885       15.8054       20.0359             0       7.69663       6.07817             0       33.2926        21.653             0       65.9677             0             0      0.202689   0.000374392      0.114898        106807        103150        392451   0.000685956
    0.0315315       296.702        290.82       211.328       14.8737       20.2671             0       7.54229       6.31238             0       34.4125       22.8085             0       66.2709             0             0      0.203358   0.000298579      0.112766        106798        103150        390360   0.000547052
     0.032032       295.217       290.676       190.167       13.9562       20.4901             0       7.38765       6.54575             0       35.5481         23.94             0       66.5606             0             0      0.204031   0.000224708      0.110598        106788        103151        388284   0.000411706
    0.0325325       294.341       290.562       174.803       13.2465       20.5926             0       7.22882       6.76684             0       36.9142       24.7217             0       66.6532             0             0      0.204757   0.000179239      0.107909        106771        103153        386448     0.0003284
     0.033033       293.485       290.449       159.795       12.5423       20.6875             0       7.06946       6.98641             0       38.2926       25.4764             0       66.7311             0             0      0.205495   0.000134678      0.105159        106754        103154        384636   0.000246755
    0.0335335       292.914       290.367       149.834       11.9157       20.6742             0       6.90253       7.18454             0       39.8441        25.851             0        66.601             0             0      0.206401   0.000102943      0.101547        106735        103156        383160    0.00018861
     0.034034        292.37       290.287        140.12       11.2867       20.6531             0       6.73467       7.38032             0       41.3996       26.1944             0       66.4507             0             0      0.207293   7.22554e-05       0.09798        106716        103158        381713   0.000132385
    0.0345345       292.187       290.231       133.805       10.6263       20.5268             0       6.55407       7.54402             0       43.0085       26.1109             0       66.0227             0             0      0.208013   5.59275e-05     0.0950212        106697        103160        380667    0.00010247
     0.035035       292.022       290.175       127.626       9.95984       20.3971             0       6.37189       7.70442             0       44.6131       25.9929             0       65.5677             0             0      0.208714   4.04227e-05     0.0921314        106678        103162        379656   7.40619e-05
    0.0355355       292.109       290.132       123.257       9.21315       20.2224             0       6.16871       7.82103             0       46.1594        25.417             0       64.7538             0             0      0.209178   3.58544e-05      0.090159        106654        103164        379094    6.5692e-05
     0.036036       292.201        290.09       118.949       8.45902       20.0428             0        5.9631       7.93348             0       47.6974       24.8059             0       63.9071             0             0      0.209652     3.126e-05     0.0881474        106630        103167        378564   5.72741e-05
    0.0365365       292.354       290.054        115.42       7.60894       19.8003             0       5.72624       7.99217             0       49.1276       23.7422             0       62.6384             0             0      0.210243   2.63285e-05      0.085629        106603        103170        378444   4.82386e-05
     0.037037        292.52       290.019       111.932       6.75997       19.5523             0       5.48626        8.0461             0       50.5483       22.6455             0       61.3331             0             0      0.210841   2.14143e-05     0.0830781        106575        103173        378355    3.9235e-05
    0.0375375       292.835       289.989       108.953       5.92482       19.2344             0       5.20725       8.04037             0         51.85       21.1357             0        59.568             0             0      0.211533   1.67181e-05     0.0801199        106536        103177        378650   3.06307e-05
     0.038038       293.182        289.96       106.013       5.09874        18.913             0       4.92458       8.02968             0       53.1462       19.6007             0       57.7649             0             0      0.212232   1.21719e-05     0.0771244        106497        103180        378977   2.23011e-05
    0.0385385       293.918       289.935        103.55       4.38279       18.5485             0       4.59733       7.95862             0       54.3749       17.7609             0       55.4997             0             0      0.213032   9.44924e-06     0.0736737        106452        103184        379683   1.73128e-05
     0.039039       294.688        289.91       101.104       3.68232       18.1843             0       4.26632       7.88254             0       55.6032        15.908             0       53.2004             0             0      0.213823   6.83668e-06     0.0702648        106408        103188        380422   1.25261e-05
    0.0395395       295.862       289.888       98.8665       3.16484       17.8238             0       3.89072       7.74717             0       56.8258       13.8989             0       50.4978             0             0      0.214496    5.5251e-06     0.0673491        106374        103193        381542    1.0123e-05
      0.04004       297.103       289.866       96.6488       2.64502       17.4594             0       3.51254       7.60661             0       58.0349       11.8832             0       47.7717             0             0      0.215144   4.39843e-06     0.0645458        106342        103198        382691   8.05874e-06
    0.0405405       299.121       289.847        94.663       2.09828       17.0493             0       3.10453        7.4062             0       59.0883       9.79281             0       44.7748             0             0      0.215489   5.39819e-06     0.0630364        106331        103203        384163    9.8905e-06
     0.041041       301.331       289.827       92.6696       1.51063       16.6296             0       2.69625       7.20053             0       60.0949       7.69929             0       41.7623             0             0      0.215815   6.96398e-06     0.0616016        106321        103208        385659   1.27593e-05
    0.0415415       305.687       289.804       90.5921      0.464871       16.1016             0       2.28504         6.936             0       60.5782       5.57125             0       38.5756             0             0      0.215934   1.48664e-05     0.0610034        106331        103213        387418   2.72381e-05
     0.042042        310.32       289.779       88.4098      -0.64229       15.5635             0       1.87541       6.66657             0       61.0019       3.45173             0       35.3794             0             0      0.216023   2.46792e-05     0.0605168        106343        103218        389193    4.5217e-05
    0.0425425       317.976       289.736        85.085      -2.41902       14.9144             0       1.48304       6.34373             0       60.7751       1.42519             0       32.0786             0             0      0.215783    5.5324e-05     0.0612479        106368        103224        391152   0.000101364
     0.043043        325.81       289.691       81.5169      -4.23057       14.2465             0        1.0924       6.01707             0       60.5209     -0.576105             0       28.7799             0             0      0.215363   9.22247e-05     0.0626992        106396        103229        393120   0.000168973
    0.0435435       335.529       289.616        75.363      -6.41207       13.3789             0      0.720138       5.64979             0       59.9744      -2.30912             0       25.5038             0             0      0.213025   0.000195612     0.0718054        106437        103234        395196   0.000358398
     0.044044       344.909       289.538       68.9233      -8.55006       12.4832             0      0.350978       5.27928             0       59.3963      -3.99437             0       22.2459             0             0       0.21035   0.000303117     0.0823369        106479        103239        397263   0.000555367
    0.0445445       350.772        289.43       59.5218      -10.2371       11.2972             0      0.013958       4.87537             0       58.4901       -5.1846             0       19.1768             0             0      0.204175   0.000453294      0.107641        106532        103244        399241    0.00083052
     0.045045       355.866        289.32       50.0151      -11.7923       10.0919             0     -0.317474       4.46802             0       57.5121      -6.30681             0       16.1383             0             0       0.19796   0.000593251      0.133225        106586        103249        401197    0.00108695
    0.0455455       353.199       289.185       39.4457      -12.0148       8.69155             0     -0.592405       4.02583             0       55.8083      -6.74137             0       13.4098             0             0      0.191338   0.000629861      0.161637        106642        103253        402930    0.00115402