#           y             T         TMean   TPrime2Mean           U_x           U_y           U_z       UMean_x       UMean_y       UMean_z UPrime2Mea... UPrime2Mea... UPrime2Mea... UPrime2Mea... UPrime2Mea... UPrime2Mea...            O2           H2O          C3H8             p         pMean   pPrime2Mean           CO2
  1.11022e-19       288.732       288.561     0.0899272       17.8357   1.39211e-17             0       12.4779   6.58645e-19             0       33.5818  -1.12708e-18             0   7.27848e-18             0             0      0.201153   1.26733e-15      0.125423        104724        103146        303323   2.32198e-15
  0.000500501       288.729        288.57       0.08873          17.9     0.0627577             0       12.4379    0.00296924             0       33.1959   -0.00508099             0     0.0328122             0             0      0.201472   1.26143e-15      0.124038        104724        103146        303328   2.31117e-15
     0.001001       288.725       288.579     0.0875411       17.9645      0.125455             0       12.3977    0.00594043             0       32.8085    -0.0100987             0     0.0657216             0             0      0.201791   1.25549e-15      0.122648        104725        103146        303333   2.30029e-15
    0.0015015       288.717       288.596     0.0905302       18.1216      0.157839             0       12.3087    0.00988232             0       31.7041     0.0164634             0      0.147178             0             0      0.202699   1.22987e-15      0.118703        104727        103146        303332   2.25335e-15
     0.002002       288.708       288.613     0.0935468       18.2788      0.189999             0       12.2197     0.0138209             0       30.5988     0.0430805             0      0.228853             0             0      0.203608   1.20414e-15       0.11475        104730        103146        303331    2.2062e-15
    0.0025025       288.692       288.626      0.103422       18.4622      0.166418             0       12.1378     0.0169437             0       29.2774      0.083378             0      0.365095             0             0      0.204997   1.14925e-15      0.108711        104733        103146        303326   2.10564e-15
     0.003003       288.676       288.638      0.113296       18.6457      0.142497             0        12.056     0.0200612             0        27.958      0.123573             0      0.501633             0             0      0.206387   1.09426e-15      0.102665        104736        103146        303322   2.00488e-15
    0.0035035       288.655       288.644      0.122855       18.8245     0.0622069             0       11.9979     0.0223162             0       26.9586      0.146742             0      0.687344             0             0      0.208051   1.02179e-15     0.0954326        104739        103145        303357   1.87211e-15
     0.004004       288.634        288.65      0.132371       19.0035    -0.0182395             0       11.9399     0.0245776             0        25.962       0.16978             0      0.873393             0             0      0.209713     9.494e-16     0.0882061        104742        103145        303393   1.73948e-15
    0.0045045       288.618       288.655      0.136556       19.1948     -0.118066             0       11.8848     0.0276403             0       25.3144       0.17653             0       1.10139             0             0      0.211218   8.86732e-16     0.0816639        104746        103145        303421   1.62466e-15
   0.00500501       288.602        288.66      0.140651       19.3866     -0.217614             0       11.8295     0.0307239             0       24.6696      0.183172             0        1.3298             0             0      0.212717   8.24296e-16      0.075143        104750        103145        303449   1.51026e-15
   0.00550551       288.598       288.669      0.135951       19.6226     -0.289638             0       11.7631     0.0358676             0        24.305      0.179145             0       1.59983             0             0      0.213731   7.84912e-16     0.0707333        104754        103144        303493    1.4381e-15
   0.00600601       288.595       288.677       0.13119       19.8591     -0.360909             0       11.6966     0.0410197             0       23.9435       0.17494             0       1.87046             0             0      0.214741   7.45723e-16     0.0663449        104759        103144        303538    1.3663e-15
   0.00650651       288.601       288.688      0.121491        20.149      -0.37014             0        11.626     0.0468538             0       23.8327      0.156094             0       2.19104             0             0      0.215347   7.22664e-16     0.0637092        104763        103143        303606   1.32406e-15
   0.00700701       288.607       288.699      0.111839       20.4393     -0.378283             0       11.5556     0.0526795             0       23.7249      0.136969             0       2.51247             0             0      0.215949   6.99747e-16     0.0610908        104767        103143        303676   1.28207e-15
   0.00750751       288.618       288.706      0.105437       20.7614     -0.309846             0       11.4931     0.0579123             0       23.8308     0.0982386             0       2.89409             0             0      0.216271   6.86752e-16     0.0596926        104772        103143        303780   1.25826e-15
   0.00800801       288.629       288.713     0.0990919       21.0834     -0.240186             0       11.4307     0.0631321             0       23.9381       0.05938             0        3.2768             0             0      0.216588   6.73923e-16     0.0583153        104776        103142        303885   1.23475e-15
   0.00850851       288.642       288.716      0.096248       21.4008    -0.0952902             0         11.38     0.0675582             0        24.131     0.0126331             0       3.72707             0             0       0.21661   6.71245e-16     0.0582193        104781        103142        304037   1.22985e-15
   0.00900901       288.655       288.718     0.0934202       21.7175     0.0506761             0       11.3294     0.0719621             0       24.3211    -0.0338397             0       4.17856             0             0      0.216627   6.68721e-16      0.058143        104785        103141        304191   1.22522e-15
   0.00950951       288.668       288.718     0.0914691       21.9988      0.255055             0       11.2904     0.0751564             0       24.3683    -0.0653677             0       4.69611             0             0      0.216399   6.74549e-16     0.0591332        104789        103140        304396    1.2359e-15
      0.01001       288.681       288.718     0.0895284        22.279      0.460182             0       11.2515     0.0783174             0       24.4096     -0.096472             0       5.21486             0             0      0.216166    6.8058e-16     0.0601498        104793        103140        304602   1.24695e-15
    0.0105105       288.697       288.717     0.0880951       22.5003      0.702001             0        11.223     0.0798443             0       24.1632     -0.106814             0       5.79175             0             0      0.215636   6.96571e-16     0.0624555        104797        103139        304846   1.27625e-15
     0.011011       288.714       288.716     0.0866665       22.7202      0.944293             0       11.1947     0.0813314             0       23.9103     -0.116971             0       6.36973             0             0      0.215096   7.12882e-16     0.0648035        104801        103139        305089   1.30613e-15
    0.0115115       288.738       288.714     0.0854519       22.8756       1.20762             0       11.1739     0.0810458             0       23.3683     -0.118867             0       6.99592             0             0      0.214124   7.43389e-16     0.0690287        104804        103138        305326   1.36203e-15
     0.012012       288.762       288.712     0.0842398       23.0295       1.47108             0       11.1531     0.0807235             0       22.8202     -0.120685             0        7.6229             0             0      0.213142   7.74236e-16     0.0732994        104807        103137        305563   1.41854e-15
    0.0125125       288.794       288.709      0.083136       23.1189       1.73964             0        11.135     0.0789109             0       22.0196      -0.11937             0       8.28217             0             0      0.211734   8.18866e-16     0.0794192        104810        103136        305823   1.50031e-15
     0.013013       288.826       288.707     0.0820303       23.2067       2.00811             0       11.1168     0.0771049             0       21.2121     -0.117176             0       8.94127             0             0      0.210329   8.63438e-16     0.0855283        104813        103136        306081   1.58198e-15
    0.0135135        288.86       288.705     0.0808521       23.2341       2.27309             0       11.0922     0.0755485             0        20.147    -0.0820494             0       9.59421             0             0      0.209016   9.05847e-16     0.0912374        104816        103135        306301   1.65968e-15
     0.014014       288.894       288.703     0.0796758         23.26       2.53828             0       11.0672     0.0740834             0       19.0752    -0.0449794             0       10.2454             0             0      0.207711   9.47997e-16      0.096911        104819        103134        306520   1.73691e-15
    0.0145145       288.926       288.703     0.0785661       23.2321       2.81035             0       11.0245     0.0757898             0       17.7685     0.0595666             0       10.8351             0             0      0.206688   9.81126e-16      0.101357        104821        103134        306684    1.7976e-15
     0.015015       288.957       288.702     0.0774647        23.202       3.08311             0       10.9812     0.0776066             0       16.4582       0.16551             0       11.4222             0             0      0.205669    1.0141e-15      0.105786        104824        103133        306849   1.85801e-15
    0.0155155       288.982       288.701     0.0766335       23.1017       3.37796             0       10.9162     0.0829946             0       15.0324      0.316631             0       11.9265             0             0      0.204776   1.04193e-15      0.109672        104826        103132        307018   1.90902e-15
     0.016016       289.007       288.701     0.0758052       22.9981       3.67383             0       10.8508     0.0883737             0       13.6078       0.46695             0        12.429             0             0      0.203883   1.06966e-15      0.113554        104828        103132        307185   1.95981e-15
    0.0165165       289.025       288.701     0.0750628       22.7963       4.00038             0       10.7714     0.0934873             0       12.2196      0.592994             0       12.8731             0             0      0.203022   1.09394e-15      0.117294        104829        103131        307301    2.0043e-15
     0.017017       289.044         288.7     0.0743249       22.5905       4.32766             0       10.6919      0.098478             0       10.8372      0.716727             0       13.3153             0             0      0.202161   1.11821e-15       0.12104        104831        103131        307415   2.04877e-15
    0.0175175       289.062         288.7      0.073717       22.2717       4.67559             0       10.6076     0.0999735             0       9.62178      0.774808             0       13.7022             0             0      0.201265   1.14222e-15      0.124936        104832        103130        307459   2.09276e-15
     0.018018        289.08       288.699     0.0731127       21.9495       5.02319             0       10.5233      0.101361             0        8.4175      0.830837             0       14.0854             0             0      0.200378   1.16601e-15      0.128789        104833        103130        307499   2.13634e-15
    0.0185185       289.097       288.698     0.0726042        21.535       5.36219             0       10.4367     0.0998613             0       7.51133      0.831918             0       14.3689             0             0      0.199762   1.18378e-15       0.13147        104834        103129        307444   2.16891e-15
     0.019019       289.113       288.698     0.0720907       21.1191        5.6996             0       10.3501     0.0982839             0       6.62123      0.831616             0        14.647             0             0      0.199156   1.20134e-15      0.134102        104835        103129        307384   2.20108e-15
    0.0195195       289.128       288.698     0.0714502       20.6662       5.99696             0        10.263     0.0947472             0        6.1381      0.796283             0       14.7889             0             0      0.198834    1.2134e-15      0.135502        104836        103129        307217   2.22317e-15
      0.02002       289.142       288.698     0.0707853       20.2145       6.29154             0        10.176     0.0911027             0       5.67295      0.759798             0        14.925             0             0      0.198521   1.22523e-15      0.136862        104837        103128        307048   2.24484e-15
    0.0205205       289.149       288.699     0.0695355       19.7925       6.51916             0       10.0918      0.084872             0        5.6395      0.695683             0        14.921             0             0       0.19843   1.23148e-15      0.137258        104838        103128        306825    2.2563e-15
     0.021021       289.157       288.701     0.0682586       19.3742       6.74331             0       10.0078     0.0785392             0       5.62234       0.63071             0       14.9108             0             0      0.198347   1.23748e-15      0.137622        104839        103129        306599    2.2673e-15
    0.0215215       289.157       288.703     0.0663631       19.0392       6.88835             0       9.92566     0.0698765             0       5.97672      0.546181             0        14.761             0             0      0.198434   1.23787e-15      0.137244        104841        103129        306338   2.26801e-15
     0.022022       289.157       288.706     0.0644578       18.7094       7.02991             0       9.84343     0.0611848             0       6.34353      0.461471             0       14.6047             0             0       0.19852   1.23822e-15      0.136868        104843        103129        306074   2.26866e-15
    0.0225225       289.152       288.709     0.0623406        18.494       7.09628             0       9.75847     0.0518625             0       6.98065       0.37284             0       14.3079             0             0      0.198593   1.23769e-15       0.13655        104845        103130        305742   2.26768e-15
     0.023023       289.147       288.713     0.0602363       18.2841       7.15969             0       9.67328     0.0425702             0       7.62603      0.284688             0       14.0049             0             0      0.198663   1.23718e-15      0.136247        104847        103130        305407   2.26674e-15
    0.0235235       289.138       288.716     0.0584001       18.1912        7.1617             0       9.58327     0.0338997             0       8.44274      0.206481             0       13.5751             0             0      0.198658   1.23693e-15      0.136269        104850        103131        305015   2.26629e-15
     0.024024       289.128       288.719     0.0565901       18.1032       7.16166             0       9.49315      0.025286             0       9.26418      0.129382             0       13.1403             0             0       0.19865   1.23672e-15      0.136302        104853        103131        304623   2.26591e-15
    0.0245245        289.11       288.723     0.0552996       18.1143       7.12118             0       9.40077     0.0177995             0       10.1791     0.0742565             0        12.605             0             0       0.19859   1.23714e-15      0.136562        104857        103132        304230   2.26667e-15
     0.025025       289.091       288.726     0.0540164       18.1292       7.07958             0       9.30857     0.0103952             0       11.0949     0.0209074             0       12.0661             0             0       0.19853   1.23758e-15      0.136824        104861        103132        303836   2.26747e-15
    0.0255255       289.062        288.73     0.0528724       18.2154       7.01694             0        9.2197    0.00455278             0       12.0265    0.00131693             0       11.4587             0             0      0.198458   1.23845e-15      0.137137        104865        103133        303409   2.26908e-15
     0.026026       289.033       288.734      0.051711       18.3038        6.9537             0        9.1313   -0.00118499             0       12.9539    -0.0162032             0       10.8496             0             0      0.198393   1.23921e-15      0.137421        104869        103134        302982   2.27046e-15
    0.0265265       289.001       288.739     0.0502316       18.4318       6.87955             0       9.05153   -0.00501494             0       13.8066     0.0040203             0        10.209             0             0      0.198448   1.23785e-15       0.13718        104873        103135        302545   2.26798e-15
     0.027027       288.969       288.744     0.0487244         18.56       6.80464             0       8.97233   -0.00874544             0       14.6499     0.0259946             0       9.56862             0             0      0.198517   1.23623e-15      0.136884        104878        103136        302107   2.26501e-15
    0.0275275       288.938       288.751     0.0467289       18.6922       6.71643             0       8.90332    -0.0107335             0       15.3286     0.0786399             0       8.93244             0             0      0.198806   1.22998e-15      0.135627        104882        103136        301664   2.25354e-15
     0.028028       288.907       288.757     0.0447648       18.8227       6.62738             0       8.83487    -0.0126355             0       15.9921      0.131988             0       8.29818             0             0      0.199104    1.2235e-15      0.134328        104887        103137        301221   2.24169e-15
    0.0285285       288.869       288.765     0.0433302       18.9248       6.52414             0       8.77589    -0.0130854             0       16.4003      0.197182             0       7.69626             0             0      0.199566   1.21339e-15      0.132322        104891        103138        300802   2.22316e-15
     0.029029        288.83       288.772     0.0419855       19.0244         6.421             0       8.71752    -0.0134252             0       16.7897      0.261614             0        7.0977             0             0      0.200031   1.20322e-15        0.1303        104896        103138        300389   2.20452e-15
    0.0295295       288.788       288.777     0.0421006       19.0851       6.31955             0       8.66915    -0.0119746             0       16.8718      0.313682             0       6.55367             0             0      0.200553   1.19191e-15      0.128029        104900        103139        300074   2.18381e-15
      0.03003       288.746       288.782     0.0422562       19.1439       6.21955             0       8.62154    -0.0103857             0       16.9377      0.364493             0       6.01415             0             0      0.201078   1.18065e-15       0.12575        104904        103139        299768   2.16316e-15
    0.0305305       288.709       288.783     0.0430451       19.1726       6.14222             0       8.58603   -0.00662804             0       16.7505       0.39561             0       5.54521             0             0      0.201635   1.16988e-15      0.123326        104908        103140        299585   2.14343e-15
     0.031031       288.672       288.784     0.0438137       19.1998       6.06718             0       8.55131   -0.00275912             0       16.5552       0.42612             0       5.08118             0             0      0.202182   1.15961e-15       0.12095        104911        103141        299407   2.12462e-15
    0.0315315       288.639       288.783     0.0442733       19.2035       6.02671             0       8.52879     0.0027938             0       16.2379      0.447453             0       4.69165             0             0      0.202564   1.15699e-15      0.119288        104915        103141        299294   2.11982e-15
     0.032032       288.607       288.782     0.0446964       19.2051        5.9883             0       8.50675    0.00837988             0       15.9203      0.468637             0       4.30656             0             0      0.202924   1.15503e-15      0.117722        104918        103142        299189   2.11623e-15
    0.0325325        288.59       288.779     0.0445866        19.176        5.9799             0       8.49191     0.0144509             0       15.5987      0.487631             0       3.98638             0             0      0.202965   1.16283e-15      0.117545        104921        103142        299184   2.13051e-15
     0.033033       288.574       288.776     0.0444451       19.1438        5.9725             0       8.47709     0.0204794             0       15.2809      0.506261             0       3.66973             0             0      0.202997   1.17077e-15      0.117407        104923        103143        299185   2.14507e-15
    0.0335335       288.574       288.772     0.0438566       19.0687       5.97922             0       8.46254     0.0259062             0       15.0153      0.519751             0       3.40315             0             0      0.202901   1.18084e-15      0.117821        104926        103143        299270   2.16351e-15
     0.034034       288.575       288.768     0.0432361       18.9898       5.98555             0       8.44776     0.0312626             0       14.7532        0.5326             0       3.13929             0             0      0.202801   1.19099e-15      0.118258        104928        103143        299357   2.18211e-15
    0.0345345       288.584       288.763     0.0421776       18.8591       5.98651             0       8.42988     0.0356541             0       14.5406      0.536664             0       2.91271             0             0      0.202628   1.20228e-15      0.119011        104930        103144        299489   2.20281e-15
     0.035035       288.594       288.758     0.0411032       18.7242       5.98602             0       8.41186     0.0399683             0       14.3296      0.540064             0       2.68824             0             0      0.202447   1.21385e-15      0.119795        104933        103144        299625   2.22401e-15
    0.0355355       288.615       288.751     0.0398185       18.5343       5.96622             0       8.39187     0.0432564             0       14.1401      0.534635             0       2.49171             0             0       0.20217   1.22906e-15      0.121001        104935        103144        299833   2.25187e-15
     0.036036       288.637       288.745     0.0385546       18.3409       5.94413             0       8.37191     0.0464695             0       13.9508      0.528632             0       2.29684             0             0      0.201891   1.24437e-15      0.122214        104938        103145        300043   2.27991e-15
    0.0365365       288.669       288.737     0.0375588       18.1016       5.89248             0       8.35248     0.0487151             0       13.7631      0.515217             0       2.12326             0             0      0.201592   1.26084e-15      0.123512        104941        103145        300273    2.3101e-15
     0.037037       288.702        288.73     0.0366179       17.8603         5.838             0        8.3332     0.0508922             0       13.5751      0.501436             0       1.95103             0             0      0.201282   1.27771e-15      0.124857        104943        103145        300504   2.34101e-15
    0.0375375       288.741       288.723      0.036364       17.5921       5.74794             0       8.31565     0.0522127             0       13.3834      0.483061             0       1.79573             0             0      0.200834   1.29951e-15      0.126803        104947        103145        300750   2.38095e-15
     0.038038       288.781       288.717     0.0361593       17.3229       5.65535             0       8.29821     0.0534709             0       13.1912      0.464675             0       1.64165             0             0      0.200368   1.32196e-15      0.128826        104950        103145        300999   2.42208e-15
    0.0385385       288.827       288.712     0.0365507       17.0408       5.53198             0       8.28211     0.0539731             0       12.9931      0.446166             0       1.50254             0             0      0.199686   1.35239e-15      0.131796        104953        103145        301277   2.47782e-15
     0.039039       288.873       288.708     0.0369603       16.7591        5.4067             0       8.26601     0.0544231             0       12.7941      0.427993             0       1.36458             0             0      0.199003   1.38255e-15      0.134768        104956        103146        301558    2.5331e-15
    0.0395395       288.919       288.705     0.0375838       16.4832        5.2588             0       8.24999     0.0542562             0       12.5843      0.413791             0       1.24029             0             0      0.198314   1.40972e-15      0.137767        104960        103146        301860   2.58286e-15
      0.04004       288.964       288.702     0.0382144       16.2092       5.10921             0       8.23391      0.054033             0       12.3737      0.399886             0       1.11714             0             0      0.197641   1.43605e-15      0.140693        104963        103146        302166   2.63111e-15
    0.0405405       288.996         288.7     0.0389276       15.9568       4.94021             0       8.21709     0.0531629             0       12.1552      0.389403             0       1.00707             0             0      0.197162   1.45279e-15      0.142778        104966        103146        302506   2.66179e-15
     0.041041       289.027       288.698     0.0396467       15.7052       4.77069             0       8.20027     0.0522187             0       11.9377      0.378773             0      0.898135             0             0       0.19669   1.46924e-15      0.144827        104970        103146        302847   2.69192e-15
    0.0415415       289.045       288.697     0.0404317       15.4632       4.59538             0        8.1833     0.0504442             0       11.7313      0.366483             0      0.801942             0             0      0.196315   1.48234e-15       0.14646        104973        103146        303190   2.71593e-15
     0.042042       289.064       288.696     0.0412241       15.2237        4.4198             0       8.16636     0.0485816             0       11.5274      0.353585             0      0.706792             0             0      0.195937   1.49543e-15      0.148102        104976        103147        303531    2.7399e-15
    0.0425425        289.08       288.695     0.0420978       15.0128       4.24116             0       8.14971     0.0457581             0       11.3503      0.334065             0      0.623005             0             0      0.195534   1.50828e-15      0.149853        104978        103147        303845   2.76346e-15
     0.043043       289.099       288.694     0.0429909       14.8057       4.05915             0       8.13291     0.0428516             0       11.1746      0.313785             0      0.540165             0             0      0.195136    1.5209e-15      0.151585        104981        103147        304158   2.78657e-15
    0.0435435       289.131       288.695     0.0440905        14.638        3.8413             0       8.11464     0.0390629             0       11.0134      0.285436             0      0.467398             0             0      0.194782   1.53098e-15      0.153123        104983        103147        304475   2.80504e-15
     0.044044       289.167       288.695     0.0451873       14.4658       3.61841             0       8.09574     0.0352011             0       10.8513      0.256764             0      0.395526             0             0       0.19441   1.54247e-15      0.154739        104985        103147        304789    2.8261e-15
    0.0445445        289.24       288.695     0.0462551       14.2465       3.34326             0       8.07041     0.0305818             0       10.6799      0.224746             0      0.332945             0             0      0.193853    1.5686e-15      0.157161        104986        103147        305075   2.87398e-15
     0.045045       289.315       288.695     0.0472575       14.0198       3.06525             0       8.04325      0.025929             0       10.5026      0.193304             0      0.271265             0             0       0.19326   1.59818e-15      0.159739        104988        103147        305356   2.92817e-15
    0.0455455       289.402       288.695     0.0475995       13.7186       2.75827             0       7.99762     0.0209384             0       10.2656      0.167675             0      0.218688             0             0      0.192302   1.66264e-15      0.163907        104989        103147        305583   3.04627e-15