#           y             T         TMean   TPrime2Mean           U_x           U_y           U_z       UMean_x       UMean_y       UMean_z UPrime2Mea... UPrime2Mea... UPrime2Mea... UPrime2Mea... UPrime2Mea... UPrime2Mea...            O2           H2O          C3H8             p         pMean   pPrime2Mean           CO2
  1.11022e-19       289.484        288.19      0.213964       30.2572   1.69858e-17             0       17.1997   5.45695e-18             0       41.5597   -2.6366e-17             0   2.43441e-17             0             0      0.229501   1.98018e-07    0.00216773        106264        103223        399690   3.62806e-07
  0.000500501       289.491       288.192      0.222705       30.2368     0.0765737             0       17.2046     0.0246005             0       41.4888     -0.118861             0      0.109746             0             0      0.229288   4.01134e-07    0.00309068        106258        103223        399684   7.34952e-07
     0.001001       289.498       288.194      0.231518       30.2165       0.15318             0       17.2095     0.0492028             0       41.4176      -0.23767             0      0.219754             0             0      0.229074   6.05517e-07    0.00401733        106252        103222        399678   1.10942e-06
    0.0015015       289.543       288.208      0.276432       30.2207      0.246192             0       17.2126     0.0746982             0       41.1707     -0.331049             0      0.460696             0             0      0.228435   1.44249e-06    0.00678513        106242        103222        399705   2.64291e-06
     0.002002       289.588       288.222      0.322137       30.2245      0.339239             0       17.2155        0.1002             0       40.9225     -0.424176             0      0.702115             0             0      0.227795   2.28609e-06    0.00956154        106232        103222        399733   4.18854e-06
    0.0025025       289.795       288.264      0.565169       30.1442      0.440768             0       17.1862      0.127287             0       40.3445     -0.454704             0       1.06248             0             0      0.226657   4.78031e-06     0.0144819        106230        103221        399786   8.75841e-06
     0.003003       290.005       288.306      0.812107       30.0645      0.542257             0       17.1567      0.154381             0       39.7642      -0.48484             0        1.4234             0             0      0.225515   7.31824e-06      0.019419        106227        103221        399839   1.34084e-05
    0.0035035       290.613       288.386       1.70607       30.0812      0.636958             0       17.0856      0.182477             0       38.8136     -0.450159             0       1.87606             0             0      0.223719   1.70975e-05      0.027122        106235        103220        399947   3.13259e-05
     0.004004       291.231       288.466       2.61003       30.0972      0.731656             0       17.0142      0.210574             0       37.8623      -0.41533             0       2.32936             0             0      0.221921   2.69487e-05     0.0348387        106244        103220        400055    4.9375e-05
    0.0045045       292.884       288.578        4.7548        30.041      0.825823             0       16.9203      0.238729             0       36.8326      -0.36224             0       2.86197             0             0      0.219709   4.57051e-05     0.0442604        106254        103219        400169   8.37402e-05
   0.00500501       294.552       288.691       6.91259       29.9844      0.919403             0       16.8264      0.266865             0       35.8062     -0.309372             0       3.39528             0             0        0.2175   6.47995e-05     0.0536671        106264        103218        400284   0.000118725
   0.00550551       297.679       288.813       10.3603       29.8966      0.954741             0       16.7291      0.293237             0       35.1016     -0.278503             0       3.99798             0             0      0.215555   0.000117354     0.0615802        106268        103218        400470   0.000215014
   0.00600601        300.84       288.935       13.8309       29.8078      0.991109             0       16.6319      0.319564             0       34.4016     -0.248786             0       4.60178             0             0      0.213617   0.000170038     0.0694659        106272        103217        400657   0.000311541
   0.00650651       306.761       289.054       19.1825       29.6396       1.11221             0       16.5464      0.342256             0       34.0877     -0.313921             0       5.29587             0             0      0.212173   0.000233354     0.0750941        106266        103216        400866   0.000427548
   0.00700701       312.693       289.172       24.5357       29.4744       1.23315             0       16.4613      0.364842             0       33.7786     -0.382053             0       5.99214             0             0      0.210734    0.00029711     0.0806939        106261        103215        401076   0.000544362
   0.00750751       319.371        289.26       30.0073       29.5192       1.34225             0       16.4034        0.3799             0        33.819      -0.66121             0       6.84198             0             0      0.209685   0.000391889     0.0842858        106255        103215        401346   0.000718013
   0.00800801       326.026       289.346       35.4331       29.5682       1.45512             0        16.346      0.394953             0       33.8643      -0.94171             0       7.69465             0             0      0.208639    0.00048666     0.0878605        106250        103214        401617   0.000891651
   0.00850851       331.286       289.374       38.0515       29.8758       1.80035             0       16.3132      0.409707             0       34.2138      -1.30478             0       8.72221             0             0      0.207837   0.000580947     0.0903791        106254        103213        402025     0.0010644
   0.00900901       336.535         289.4       40.6155        30.183        2.1452             0       16.2802      0.424643             0       34.5629      -1.66402             0        9.7516             0             0       0.20703   0.000678459     0.0928885        106257        103212        402435    0.00124306
   0.00950951       341.218       289.384       40.2116        30.475       2.46911             0       16.2351      0.449466             0        34.886      -1.81491             0       10.8815             0             0      0.205921   0.000951893     0.0949031        106261        103210        403012    0.00174404
      0.01001       345.883       289.366       39.7677       30.7679        2.7884             0       16.1889       0.47454             0       35.2018      -1.95955             0       12.0121             0             0      0.204795    0.00123237     0.0969199        106264        103209        403592    0.00225793
    0.0105105       349.639       289.325       37.3661       31.1043       2.88068             0       16.0882      0.511949             0       35.1578      -1.79841             0       13.1716             0             0      0.202828      0.001858     0.0990471        106264        103208        404330     0.0034042
     0.011011        353.34       289.283       34.9526       31.4367       2.97216             0       15.9859      0.549497             0       35.1105      -1.63244             0       14.3318             0             0      0.200867    0.00247797      0.101211        106263        103206        405073     0.0045401
    0.0115115       354.555       289.234       32.0152        31.595       3.02823             0       15.8164      0.593202             0       34.9139      -1.25188             0       15.5199             0             0      0.199125    0.00284605      0.105012        106269        103205        406001    0.00521449
     0.012012         355.7       289.184       29.0697       31.7456        3.0864             0       15.6452      0.636924             0       34.7242     -0.867952             0       16.7085             0             0      0.197409    0.00320245      0.108817        106275        103203        406933    0.00586748
    0.0125125       353.965       289.123       25.7972       31.5835       3.23015             0       15.4091       0.68131             0       34.8127     -0.346602             0        17.915             0             0       0.19677    0.00308366      0.112813        106290        103201        408063    0.00564984
     0.013013       352.216       289.061       22.5182       31.4161       3.37235             0       15.1713      0.725551             0       34.9091      0.175347             0        19.121             0             0      0.196136    0.00296312      0.116809        106305        103199        409199    0.00542898
    0.0135135       349.933       288.981       18.9986         31.05       3.45687             0       14.8703      0.764323             0       35.3024      0.719739             0       20.3056             0             0      0.195655    0.00277688      0.120814        106322        103198        410547    0.00508776
     0.014014       347.618       288.901       15.4932       30.6813       3.54173             0       14.5682      0.802666             0        35.699       1.26024             0       21.4891             0             0      0.195177    0.00258696       0.12484        106338        103196        411901     0.0047398
    0.0145145       344.166       288.824       12.4769       30.2225       3.63801             0       14.2235      0.826115             0       36.2136       1.66589             0        22.632             0             0      0.194833    0.00226949      0.129595        106346        103194        413444    0.00415814
     0.015015       340.667       288.747       9.48737       29.7592       3.72955             0       13.8782      0.848914             0       36.7257        2.0654             0       23.7734             0             0      0.194496    0.00194862      0.134358        106353        103192        414993    0.00357023
    0.0155155        335.63       288.692       7.36331        29.148       3.66784             0       13.5159      0.850667             0       37.1559        2.2667             0       24.8685             0             0      0.194359    0.00151754      0.139376        106348        103190        416717    0.00278042
     0.016016       330.595       288.638       5.26745       28.5291       3.60381             0       13.1537      0.851833             0        37.577       2.46334             0       25.9625             0             0        0.1942    0.00109134      0.144441        106344        103189        418448    0.00199954
    0.0165165       325.608       288.604       4.02493       27.6751       3.46984             0       12.7935      0.835271             0       37.7238       2.51902             0       27.0245             0             0       0.19336   0.000812522      0.150957        106335        103187        420374    0.00148869
     0.017017       320.633        288.57       2.80303       26.8081       3.34887             0       12.4341      0.818432             0       37.8591       2.57274             0       28.0859             0             0      0.192485   0.000538162      0.157577        106327        103185        422302   0.000986013
    0.0175175       316.001       288.548       2.16732       25.5742       3.59715             0       12.0959      0.793706             0       37.6649       2.57059             0       29.1291             0             0      0.190623   0.000390569      0.167185        106318        103184        424270   0.000715596
     0.018018       311.402       288.526       1.54482       24.3402       3.85941             0       11.7587      0.768946             0       37.4573       2.56742             0       30.1725             0             0      0.188748   0.000245421      0.176832        106309        103182        426239   0.000449657
    0.0185185        307.69        288.51       1.27618       23.1024       4.49559             0        11.449      0.743291             0       36.8933       2.53659             0       31.2226             0             0      0.186482   0.000165726      0.187505        106297        103181        428224   0.000303641
     0.019019       304.036       288.495       1.01407       21.8786       5.13262             0         11.14      0.717624             0       36.3136       2.50412             0       32.2745             0             0      0.184222   8.78572e-05      0.198131        106285        103179        430209   0.000160971
    0.0195195       301.841       288.486      0.917265        21.012       5.79111             0       10.8508      0.691683             0       35.3405       2.42979             0       33.3713             0             0      0.182122   5.62176e-05      0.207585        106273        103178        432179   0.000103001
      0.02002       299.692       288.478      0.822879       20.1687       6.44117             0       10.5621      0.665679             0       34.3569       2.35365             0       34.4702             0             0      0.180032   2.54805e-05       0.21699        106261        103177        434146    4.6685e-05
    0.0205205       298.668       288.478      0.786633       19.8822       6.88914             0       10.2872       0.63814             0       33.1198       2.23421             0        35.618             0             0      0.178164   1.64049e-05      0.225207        106250        103175        436045   3.00568e-05
     0.021021       297.669       288.478      0.751027       19.6156       7.32587             0       10.0127      0.610563             0       31.8793       2.11265             0       36.7662             0             0      0.176327   7.59769e-06      0.233285        106240        103174        437938   1.39204e-05
    0.0215215       297.265       288.484      0.730034       19.8027       7.50594             0       9.74664      0.582104             0       30.5582       1.94256             0       37.9252             0             0      0.175197   4.91244e-06      0.238224        106234        103173        439692   9.00051e-06
     0.022022       296.875       288.491      0.709033       20.0033       7.67576             0       9.48058      0.553604             0       29.2394       1.77003             0       39.0819             0             0      0.174118   2.31299e-06      0.242946        106228        103172        441435   4.23782e-06
    0.0225225        296.78         288.5      0.687877       20.4978       7.62285             0       9.21378      0.524229             0       27.9723       1.54446             0       40.1871             0             0      0.174112   1.57741e-06      0.242976        106230        103170        442908   2.89012e-06
     0.023023       296.689       288.508      0.666189       20.9907       7.56301             0       8.94668      0.494684             0        26.711       1.31697             0        41.287             0             0      0.174156   8.66249e-07      0.242793        106232        103169        444363   1.58713e-06
    0.0235235       296.666       288.514      0.633461       21.4508       7.35962             0       8.67336      0.461618             0       25.5696       1.04986             0       42.2772             0             0      0.175219   6.61292e-07      0.238176        106238        103169        445410   1.21161e-06
     0.024024       296.631        288.52      0.600027       21.8936       7.15133             0       8.40014      0.428214             0       24.4359      0.782291             0         43.26             0             0      0.176312   4.60738e-07      0.233427        106244        103168        446432   8.44158e-07
    0.0245245       296.357       288.523      0.552601       21.9917       6.84568             0       8.12872      0.388113             0       23.4533      0.505782             0       44.0956             0             0      0.178011   3.47537e-07       0.22604        106252        103167        446955   6.36753e-07
     0.025025       296.049       288.526      0.505094       22.0725       6.53846             0       7.85816       0.34769             0       22.4834      0.229745             0       44.9228             0             0      0.179788   2.36403e-07      0.218314        106261        103167        447448   4.33135e-07
    0.0255255       295.102        288.53      0.456043       21.8244       6.20125             0       7.60378      0.301157             0       21.7566    -0.0373324             0        45.592             0             0       0.18305   1.64552e-07      0.204133        106270        103167        447355   3.01489e-07
     0.026026       294.147       288.533      0.407999       21.5728        5.8652             0       7.35069      0.254459             0       21.0496     -0.304872             0       46.2528             0             0      0.186348   9.45268e-08      0.189794        106280        103166        447231   1.73191e-07
    0.0265265       293.076       288.538      0.378299       21.2577       5.55042             0       7.12118       0.20474             0       20.7036     -0.580829             0       46.7619             0             0      0.190305   5.78087e-08      0.172588        106288        103166        446551   1.05916e-07
     0.027027       292.036       288.542      0.349488       20.9499       5.24229             0        6.8931         0.155             0       20.3831     -0.859062             0        47.263             0             0      0.194145   2.25746e-08      0.155889        106297        103166        445842   4.13608e-08
    0.0275275       291.533       288.546      0.336254       20.7711       5.05082             0       6.68991      0.104878             0       20.5106      -1.17715             0       47.6237             0             0      0.195943   1.33371e-08      0.148074        106303        103166        444631    2.4436e-08
     0.028028       291.052        288.55      0.323196       20.5989       4.86961             0       6.48821     0.0548336             0       20.6629      -1.49841             0       47.9757             0             0      0.197635   4.52105e-09      0.140718        106310        103166        443397   8.28341e-09
    0.0285285       290.944       288.551      0.313119       20.5365       4.86122             0       6.31167    0.00608995             0       21.2315       -1.8732             0       48.1825             0             0      0.197543   2.80991e-09      0.141117        106313        103167        441769   5.14829e-09
     0.029029       290.847       288.552      0.303137       20.4622       4.85902             0       6.13658    -0.0425649             0       21.8149      -2.25091             0       48.3777             0             0      0.197391   1.17628e-09      0.141775        106315        103167        440125   2.15516e-09
    0.0295295       290.934        288.55      0.294702        20.194       4.95738             0       5.98499    -0.0897787             0       22.6369      -2.67599             0       48.3857             0             0       0.19627   8.01401e-10      0.146652        106313        103168        438216   1.46832e-09
      0.03003       291.022       288.548      0.286214       19.8977       5.05316             0        5.8345     -0.136811             0       23.4635      -3.10296             0       48.3773             0             0      0.195141   4.40643e-10      0.151559        106311        103168        436297    8.0734e-10
    0.0305305       291.126       288.544        0.2769       19.1615        5.1084             0       5.70118     -0.181007             0       24.3617      -3.55949             0       48.1119             0             0      0.193906   3.01066e-10      0.156928        106306        103169        434212    5.5161e-10
     0.031031        291.22       288.541      0.267434        18.402        5.1562             0       5.56849     -0.224732             0       25.2598      -4.01521             0       47.8261             0             0      0.192706   1.66802e-10      0.162147        106301        103170        432120   3.05612e-10
    0.0315315       291.162       288.536      0.255652       17.2907        5.0912             0        5.4454      -0.26134             0       26.1577       -4.4587             0       47.2305             0             0      0.192027   1.12899e-10      0.165099        106295        103172        429932   2.06852e-10
     0.032032       291.088       288.531      0.243872       16.1818       5.01863             0       5.32333     -0.297241             0       27.0536      -4.89881             0       46.6135             0             0      0.191313   6.13091e-11      0.168201        106288        103173        427746    1.1233e-10
    0.0325325       290.792       288.526      0.232137       15.1061       4.83519             0       5.21595     -0.322803             0       27.9201      -5.28943             0       45.6824             0             0      0.190095   4.35368e-11      0.173501        106284        103174        425565   7.97676e-11
     0.033033       290.492       288.522      0.220576       14.0616       4.64739             0       5.11061     -0.347635             0       28.7878      -5.67808             0       44.7344             0             0      0.188803   2.63545e-11      0.179118        106279        103176        423389   4.82864e-11
    0.0335335        290.13       288.519      0.211486       13.4571        4.3978             0       5.03393     -0.362153             0       29.6713      -6.03885             0       43.5462             0             0      0.186477   1.75208e-11      0.189232        106279        103177        421259   3.21013e-11
     0.034034       289.777       288.516      0.202587       12.8969       4.14679             0       4.95996     -0.376178             0       30.5652      -6.39798             0       42.3469             0             0      0.184186   9.06486e-12      0.199193        106279        103179        419139   1.66085e-11
    0.0345345       289.563       288.515      0.196295       12.9451       3.87644             0       4.92296     -0.383452             0       31.6016       -6.7346             0       40.9955             0             0      0.182375   5.78693e-12      0.207066        106283        103181        417140   1.06027e-11
     0.035035       289.359       288.513      0.190123       13.0273       3.60818             0         4.889     -0.390553             0       32.6487       -7.0654             0       39.6366             0             0      0.180677   2.71886e-12      0.214445        106287        103183        415152   4.98145e-12
    0.0355355        289.29       288.511      0.185541       13.5603        3.3677             0       4.89544     -0.395343             0       33.8373      -7.31892             0        38.179             0             0      0.180489   2.43884e-12      0.215263        106294        103185        413309    4.4684e-12
     0.036036       289.224        288.51      0.180989       14.0991       3.12956             0       4.90452     -0.399823             0       35.0379      -7.56799             0       36.7172             0             0       0.18037   2.21177e-12      0.215783        106302        103187        411476   4.05237e-12
    0.0365365       289.204       288.509      0.176842       14.7121       2.92158             0       4.94744     -0.400305             0       36.3922      -7.75981             0       35.2021             0             0      0.181135    2.6672e-12      0.212457        106311        103188        409788   4.88681e-12
     0.037037       289.185       288.509      0.172749       15.3045       2.71335             0       4.99211     -0.400199             0       37.7663      -7.95419             0       33.6834             0             0      0.181922    3.1129e-12      0.209034        106320        103190        408116   5.70342e-12
    0.0375375       289.178       288.509      0.169342       15.6393       2.50206             0       5.05861     -0.392742             0       39.3889      -8.18061             0       32.1187             0             0      0.182986   3.43686e-12      0.204407        106329        103192        406637   6.29696e-12
     0.038038       289.171       288.508       0.16614       15.9471          2.29             0       5.12685     -0.384866             0       41.0139      -8.41325             0       30.5512             0             0      0.184031   3.74074e-12      0.199866        106338        103194        405175   6.85374e-12
    0.0385385       289.168       288.506      0.165439       15.9269       2.06856             0       5.21626     -0.371893             0       42.6669      -8.72154             0       28.9498             0             0      0.184835   3.80063e-12      0.196367        106346        103196        403909   6.96347e-12
     0.039039       289.165       288.504      0.164978       15.8899       1.84717             0        5.3077     -0.358817             0       44.2896      -9.03228             0       27.3491             0             0       0.18561   3.83798e-12      0.193001        106354        103199        402661   7.03189e-12
    0.0395395       289.159       288.498      0.167348       15.6538       1.62635             0       5.42306      -0.34453             0       45.5544      -9.37203             0        25.757             0             0      0.186023    3.6088e-12      0.191204        106362        103201        401613   6.61199e-12
      0.04004       289.154       288.492      0.169867       15.4146       1.40585             0       5.53921     -0.330315             0       46.7931      -9.70733             0       24.1676             0             0      0.186401   3.37851e-12      0.189559        106370        103203        400589   6.19007e-12
    0.0405405       289.154       288.483      0.174087       15.1394        1.1889             0       5.66436     -0.316929             0       47.7317      -9.99142             0       22.6098             0             0      0.186376   3.13552e-12      0.189671        106379        103205        399847   5.74487e-12
     0.041041       289.157       288.473      0.178373       14.8754      0.973207             0       5.78758     -0.303516             0       48.6817      -10.2698             0       21.0551             0             0       0.18627   2.92395e-12      0.190132        106389        103207        399123   5.35723e-12
    0.0415415       289.178       288.462      0.183384       14.7372       0.77165             0       5.88927     -0.289791             0       49.7584      -10.4851             0       19.5342             0             0      0.185261   3.06412e-12      0.194516        106400        103209        398602   5.61403e-12
     0.042042       289.201        288.45      0.188359         14.63      0.574228             0        5.9878     -0.276003             0       50.8505      -10.6895             0       18.0147             0             0      0.184193   3.31719e-12      0.199159        106412        103211        398091   6.07771e-12
    0.0425425       289.245       288.439      0.192927       14.8614      0.421899             0       6.05178     -0.261532             0       52.1107      -10.7763             0       16.5095             0             0      0.182475   4.80153e-12      0.206628        106425        103213        397688    8.7973e-12
     0.043043        289.29       288.428      0.197412       15.1496      0.274133             0       6.11344     -0.247391             0       53.3382      -10.8385             0       15.0033             0             0      0.180812   6.52676e-12      0.213858        106439        103214        397297   1.19582e-11
    0.0435435       289.334        288.42      0.201019       16.0408       0.17487             0       6.15039     -0.236745             0       54.2175      -10.6379             0       13.4854             0             0      0.179733   1.08122e-11      0.218549        106453        103216        397028   1.98099e-11
     0.044044       289.379       288.412      0.204616       17.0014     0.0769074             0       6.18453     -0.226736             0       55.0488      -10.4081             0       11.9706             0             0      0.178771   1.60941e-11      0.222732        106467        103218        396770   2.94875e-11
    0.0445445       289.419       288.408      0.208113       18.6814   -0.00757403             0       6.18956     -0.223325             0       55.3837      -9.87642             0       10.4878             0             0      0.179022   3.17044e-11      0.221641        106481        103220        396624   5.80885e-11
     0.045045       289.458       288.403      0.211444       20.4032    -0.0962032             0       6.18959     -0.219783             0       55.7168      -9.32067             0        9.0153             0             0      0.179364   4.87608e-11      0.220157        106495        103221        396494    8.9339e-11
    0.0455455       289.497       288.397      0.213098       22.5491      -0.22677             0       6.13918     -0.214921             0       56.0332       -8.5218             0       7.64669             0             0      0.180621   8.04387e-11      0.214691        106511        103223        396518   1.47379e-10