#           y             T         TMean   TPrime2Mean           U_x           U_y           U_z       UMean_x       UMean_y       UMean_z UPrime2Mea... UPrime2Mea... UPrime2Mea... UPrime2Mea... UPrime2Mea... UPrime2Mea...            O2           H2O          C3H8             p         pMean   pPrime2Mean           CO2
            0       289.477       288.051     0.0994649       25.1517             0             0       22.7866             0             0       5.90724             0             0             0             0             0          0.23   2.03507e-14   3.23521e-08        107196        103202        469001   3.72862e-14
  0.000500501       289.471       288.051     0.0994475       25.1729    0.00595175             0       22.7891   -0.00860852             0       5.92661      0.123916             0     0.0583841             0             0          0.23    1.7318e-13    1.8424e-07        107181        103202        468443   3.17298e-13
     0.001001       289.466       288.051     0.0994301       25.1942     0.0120538             0       22.7915    -0.0172097             0       5.94614      0.247837             0      0.116872             0             0          0.23   3.32655e-13   3.40004e-07        107165        103202        467884   6.09486e-13
    0.0015015       289.452       288.051     0.0993608       25.1934     0.0931311             0       22.7856    -0.0221488             0       6.04121      0.374537             0      0.227163             0             0      0.229999   3.80865e-12   2.42964e-06        107124        103202        466650   6.97816e-12
     0.002002       289.438       288.051     0.0992922       25.1927      0.174389             0       22.7797    -0.0271132             0       6.13661      0.501393             0       0.33806             0             0      0.229999   7.49945e-12   4.58383e-06        107084        103202        465413   1.37404e-11
    0.0025025       289.423       288.051     0.0993981       25.2182      0.300591             0       22.7795    -0.0383937             0       6.31333      0.667092             0      0.599833             0             0      0.229995   6.46761e-11   2.28131e-05        107035        103202        463382   1.18499e-10
     0.003003       289.408       288.052     0.0995579        25.243      0.427063             0       22.7792    -0.0495934             0       6.49161      0.832792             0      0.862356             0             0       0.22999   1.26734e-10   4.17789e-05        106987        103202        461350   2.32201e-10
    0.0035035       289.419       288.059      0.108622       25.1329      0.598287             0       22.7651    -0.0473982             0       6.92858      0.998909             0       1.24932             0             0      0.229958   9.97483e-10   0.000182759        106966        103201        459113   1.82758e-09
     0.004004       289.431       288.067      0.120377       25.0229      0.768759             0       22.7511    -0.0453169             0       7.36807       1.16655             0       1.64067             0             0      0.229925   1.93855e-09    0.00032789        106946        103201        456873   3.55178e-09
    0.0045045       289.564        288.13       0.46584       24.9185       0.84607             0       22.7516    -0.0573548             0       8.12078        1.5231             0       2.57576             0             0      0.229773   1.15988e-08   0.000987762        106967        103200        454185   2.12511e-08
   0.00500501       289.704       288.196      0.885609       24.8095      0.924584             0       22.7516    -0.0691538             0        8.8818       1.87879             0        3.5184             0             0      0.229616    2.2234e-08    0.00166731        106988        103200        451505   4.07368e-08
   0.00550551       290.526       288.554       8.66176       24.2292        1.1223             0       22.7009    -0.0573037             0       10.4649       2.15025             0       5.20907             0             0      0.229012   1.29396e-07    0.00429464        107041        103198        449671   2.37078e-07
   0.00600601       291.364       288.922       17.2986       23.6532       1.32279             0       22.6503     -0.045998             0        12.043       2.42898             0       6.92853             0             0      0.228397   2.44017e-07    0.00696769        107095        103197        447845   4.47085e-07
   0.00650651       293.421       290.106       96.7945       23.4319       1.75161             0       22.6111    -0.0795098             0        13.217       3.30632             0       11.0194             0             0      0.226915   9.72772e-07     0.0134044        107124        103193        446759    1.7823e-06
   0.00700701       295.534       291.318       182.423       23.2107       2.18087             0       22.5717     -0.112023             0       14.3653       4.17835             0        15.129             0             0      0.225398   1.90285e-06      0.019987        107152        103189        445712   3.48638e-06
   0.00750751       301.512       294.482       699.979       22.9983       2.64024             0       22.5149    -0.0742107             0       13.7025       4.67619             0        20.551             0             0      0.221485   1.70121e-05     0.0368452        107169        103183        447378   3.11694e-05
   0.00800801       308.114       297.795       1336.14       22.7532       3.11834             0       22.4478    -0.0370695             0       13.0319       5.13236             0       25.9838             0             0      0.217553   3.61744e-05     0.0537454        107185        103178        449019   6.62783e-05
   0.00850851       353.087       310.181       9266.71       20.4985       4.74882             0       21.7486       -0.0412             0       11.8825       3.02526             0       32.0841             0             0      0.212437   0.000304599      0.073235        107153        103171        449109   0.000558083
   0.00900901       398.616       322.534       17181.3       18.2482       6.39559             0       21.0502    -0.0436776             0        10.735      0.907155             0       38.1605             0             0      0.207322   0.000575914      0.092685        107121        103164        449101    0.00105518
   0.00950951       474.458       333.071       24224.8       16.2347       8.93153             0       20.3985     0.0440179             0       9.69674      -1.81133             0       42.9286             0             0      0.202332    0.00100488      0.109979        107061        103160        443804    0.00184113
      0.01001       549.645        343.42       31126.9       14.2497       11.4529             0       19.7415      0.134997             0        8.6851      -4.48743             0        47.596             0             0      0.197381    0.00142811       0.12716        107002        103156        438464    0.00261657
    0.0105105        592.73       344.546       31097.8       13.6606       13.2581             0       18.8318      0.386874             0       8.97938       -5.0861             0       47.3284             0             0      0.194362    0.00157012       0.13883        106963        103160        431060    0.00287675
     0.011011       635.092       345.665       31082.6       13.0678        15.047             0       17.9073      0.636907             0       9.31801      -5.63927             0       46.9752             0             0      0.191408    0.00170352      0.150303        106926        103164        423635    0.00312117
    0.0115115       645.293       346.466       31686.5       12.3073        16.107             0       16.3217      0.804991             0       11.6278      -4.16978             0       42.8236             0             0       0.19137    0.00145481      0.153021        106922        103172        415222    0.00266548
     0.012012       655.482       347.275       32301.2       11.5709       17.1689             0       14.7375      0.970479             0       13.9222      -2.67658             0       38.6437             0             0      0.191339     0.0012038      0.155734        106918        103180        406826    0.00220559
    0.0125125         665.2       348.374         33351       11.8074       18.3069             0       13.2108       1.03039             0       15.5881     -0.219226             0       33.3127             0             0      0.191569   0.000859768      0.158265        106899        103186        399149    0.00157526
     0.013013       674.923       349.456       34390.7        12.059       19.4107             0        11.706       1.08743             0       17.1856       2.21217             0       28.0322             0             0      0.191741   0.000520263      0.161002        106880        103192        391520   0.000953219
    0.0135135       684.856       349.884       35046.8       12.8755       19.2342             0       11.0245       1.03699             0       16.2152       3.67115             0       24.6381             0             0      0.189741   0.000350416      0.171442        106829        103194        385720   0.000642027
     0.014014       694.331       350.255       35660.8       13.6555        19.028             0       10.3662      0.988244             0       15.2119       5.08001             0       21.2834             0             0      0.187453   0.000183682      0.183099        106779        103197        379967    0.00033654
    0.0145145       687.926       348.637       34810.5       13.1682       17.7907             0       10.5159       0.99845             0       13.0662       4.74871             0        19.297             0             0      0.175193   0.000125051      0.237007        106771        103198        375818   0.000229116
     0.015015       681.034       346.992         33914       12.6963       16.5538             0       10.6647       1.00726             0       10.9689       4.41721             0       17.3351             0             0      0.162701   6.75132e-05      0.291908        106764        103199        371697   0.000123697
    0.0155155       658.376       344.507       31524.8        12.724       15.3295             0       10.7829      0.970984             0       10.4357       4.07923             0       16.1654             0             0       0.14274   4.53401e-05      0.378921        106768        103199        368469   8.30716e-05
     0.016016       634.996       341.899       29051.1       12.7839       14.1066             0       10.9156      0.932203             0       9.95453       3.71267             0       15.0246             0             0      0.122853   2.36924e-05      0.465607        106772        103198        365277   4.34089e-05
    0.0165165        589.76       335.545       24020.9       13.8198        12.921             0       11.4873      0.817702             0       11.0485       2.48163             0        14.756             0             0      0.105198   1.79367e-05      0.542428        106773        103197        363140   3.28634e-05
     0.017017       544.422       329.108       18975.9       14.8432       11.7393             0       12.1175      0.698285             0       12.1623       1.19463             0       14.4862             0             0     0.0878658   1.23919e-05      0.617843        106772        103196        361014   2.27043e-05
    0.0175175       496.152        320.33       13512.2       15.5081       10.6658             0       14.4088      0.439209             0        13.836      -1.68257             0       14.1812             0             0      0.079707   1.28372e-05      0.653311        106737        103196        359185   2.35202e-05
     0.018018       448.763        311.66       8142.47       16.1368       9.60101             0       16.6995      0.187974             0       15.5025      -4.51911             0       13.8826             0             0     0.0720538   1.34064e-05       0.68658        106701        103196        357355   2.45631e-05
    0.0185185       424.959        305.86       5288.04       15.7956       8.76954             0       18.9787      0.146705             0       16.9745      -6.26689             0       13.7589             0             0     0.0779405   1.72921e-05      0.660946        106643        103195        355498   3.16823e-05
     0.019019       401.565       300.168       2508.74       15.4414         7.963             0       21.1992      0.108293             0       18.3982      -7.94682             0       13.6284             0             0     0.0840835   2.12405e-05      0.634197        106587        103193        353665   3.89165e-05
    0.0195195       388.526       297.234       1631.35       14.7536       7.78776             0       21.9343       0.14219             0       18.6009       -7.9091             0        13.326             0             0     0.0967128   2.67778e-05       0.57923        106557        103194        352449   4.90619e-05
      0.02002       375.614       294.355       778.241       14.0946       7.64052             0       22.6536      0.175832             0       18.7622      -7.85526             0       13.0367             0             0      0.109226   3.21599e-05       0.52477        106529        103194        351254   5.89229e-05
    0.0205205       365.765       292.776       507.749       14.1267       8.16547             0       22.9961      0.203362             0       17.9303      -7.41456             0       13.0622             0             0      0.118946   3.38158e-05      0.482494        106546        103194        350580   6.19568e-05
     0.021021       355.853       291.227       244.716       14.2015        8.7147             0       23.3245      0.235436             0       17.0891      -6.94461             0       13.1423             0             0      0.128725   3.51519e-05      0.439961        106564        103193        349896   6.44048e-05
    0.0215215       344.498       290.341       151.848       15.2492       9.81754             0       23.3322      0.371137             0        16.034      -5.80727             0       14.4672             0             0      0.139861   2.91942e-05      0.391605        106601        103192        348980   5.34892e-05
     0.022022       333.127       289.477       61.9834        16.294       10.8999             0       23.3173      0.506883             0        15.015      -4.61736             0        15.816             0             0       0.15115   2.31765e-05      0.342584        106638        103190        348075   4.24637e-05
    0.0225225       321.408       289.072         37.37       17.2767       11.5375             0       22.8073      0.643577             0       14.7795      -2.28515             0       17.6861             0             0      0.165764   1.58554e-05      0.279121        106665        103187        347411     2.905e-05
     0.023023       309.926       288.678        13.634       18.2582       12.1483             0       22.2486      0.786238             0       14.6934      0.138496             0       19.5553             0             0       0.18025    8.7205e-06      0.216211        106691        103184        346736   1.59776e-05
    0.0235235       303.364       288.532       8.09356       19.2166        12.202             0       20.6791       1.05264             0        17.708        4.4584             0       21.4048             0             0      0.192081   5.44833e-06      0.164809        106697        103179        345823   9.98235e-06
     0.024024       296.986       288.393       2.76401        20.194       12.2623             0       19.0459       1.31411             0       21.1131       8.77573             0       23.3184             0             0      0.203705   2.28853e-06      0.114302        106701        103175        344907   4.19301e-06
    0.0245245       294.256       288.368       1.61733       21.5463        12.454             0       16.1507       1.47781             0       32.2652        13.042             0       26.5008             0             0      0.211243   1.35745e-06     0.0815376        106685        103170        343919    2.4871e-06
     0.025025       291.619       288.345      0.518784       22.8329        12.622             0       13.2584       1.62625             0       43.6567       17.0949             0       29.7416             0             0      0.218553   4.63174e-07     0.0497655        106669        103164        342902   8.48621e-07
    0.0255255       290.751       288.362      0.334852       22.8694       12.3393             0       10.4236       1.48464             0       59.5975       17.0941             0       34.0917             0             0      0.221525   2.68137e-07     0.0368438        106637        103156        341347   4.91276e-07
     0.026026       289.918       288.379      0.159335       22.8069       12.0036             0       7.63991        1.3343             0         75.15       16.9228             0       38.3914             0             0      0.224359   8.15043e-08     0.0245261        106605        103149        339797   1.49331e-07
    0.0265265       289.711       288.396      0.137243       20.9404       10.7022             0       5.78669       1.02452             0       83.6237       13.6455             0       41.7717             0             0      0.224659   4.80958e-08     0.0232202        106573        103140        338326   8.81205e-08
     0.027027       289.513       288.412      0.116235       19.0645       9.37811             0        3.9655      0.709565             0        91.506       10.3238             0       45.0789             0             0      0.224863   1.62566e-08     0.0223338        106541        103132        336884   2.97851e-08
    0.0275275       289.487       288.426      0.114218       17.0262       7.65564             0       2.70573      0.303902             0       89.0276       6.22323             0       47.1082             0             0      0.223377   1.19073e-08     0.0287958        106513        103124        335939   2.18164e-08
     0.028028       289.462       288.439      0.112252       15.0705       5.95823             0       1.46723     -0.102453             0       86.2547       2.15175             0       49.0579             0             0      0.221822   8.12578e-09     0.0355566        106486        103116        335006   1.48879e-08
    0.0285285       289.451       288.449      0.111132       14.5072       4.68323             0      0.587355     -0.520457             0        78.515      -1.42912             0       49.6673             0             0      0.219109   1.39151e-08      0.047355        106464        103109        334273   2.54951e-08
     0.029029        289.44       288.459      0.109961       14.0064       3.43029             0     -0.282102      -0.93506             0       70.7043      -4.91212             0       50.2001             0             0      0.216462   2.07804e-08     0.0588641        106443        103102        333526   3.80736e-08
    0.0295295       289.406       288.465      0.107965       14.5198       2.53579             0     -0.982437      -1.29443             0       61.7403      -6.80571             0       49.4884             0             0      0.214896   4.51208e-08     0.0656744        106423        103096        332547   8.26698e-08
      0.03003       289.373       288.471      0.105946       15.0232       1.64266             0      -1.67547      -1.64996             0       52.8248       -8.5994             0       48.7175             0             0      0.213469   7.08124e-08     0.0718769        106403        103091        331547   1.29741e-07
    0.0305305       289.341       288.476      0.103587       15.3714      0.770847             0      -2.25412      -1.94544             0       44.6708      -8.82799             0       47.0189             0             0      0.214232   1.17671e-07     0.0685573        106380        103088        330198   2.15595e-07
     0.031031       289.312       288.481      0.101308       15.6656     -0.100349             0      -2.82616      -2.23544             0         36.71      -8.97921             0       45.2779             0             0      0.215055   1.65542e-07     0.0649807        106356        103085        328877   3.03303e-07
    0.0315315       289.326       288.485      0.100222       15.1409     -0.962236             0       -3.2983      -2.44236             0       31.6718      -7.95988             0       42.8957             0             0      0.216772   2.28728e-07     0.0575148        106331        103085        327952   4.19073e-07
     0.032032       289.343       288.489      0.099253       14.5584      -1.82126             0      -3.76005      -2.64413             0       26.8616      -6.91446             0        40.495             0             0      0.218476   2.90671e-07     0.0501035        106306        103085        327126   5.32564e-07
    0.0325325       289.403       288.491     0.0999805       13.1284      -2.63835             0      -4.06982      -2.77063             0       25.3856      -5.48756             0        37.824             0             0      0.219998   3.34429e-07     0.0434889        106285        103087        327727   6.12736e-07
     0.033033       289.463       288.493      0.100759       11.6565      -3.44785             0      -4.36764      -2.89238             0       24.0491      -4.07144             0       35.1514             0             0      0.221476   3.75813e-07     0.0370583        106265        103090        328492    6.8856e-07
    0.0335335       289.533       288.494      0.102258       9.59085      -4.14993             0      -4.49632      -2.94707             0       24.6865      -2.80783             0       32.4552             0             0      0.222357   3.83621e-07     0.0332309        106254        103094        331564   7.02865e-07
     0.034034       289.603       288.495      0.103756       7.51179       -4.8429             0      -4.61416      -2.99861             0       25.3588      -1.56386             0       29.7754             0             0      0.223197   3.91324e-07     0.0295777        106244        103098        334790   7.16978e-07
    0.0345345       289.668       288.496      0.105238       5.24849      -5.41086             0      -4.58335      -3.00701             0        26.509     -0.589166             0       27.3202             0             0      0.223488   3.97599e-07     0.0283123        106247        103102        340120   7.28476e-07
     0.035035       289.734       288.497      0.106668       2.98607      -5.96975             0      -4.54483      -3.01246             0        27.621      0.365584             0       24.8865             0             0      0.223752   4.07727e-07     0.0271616        106251        103107        345558   7.47031e-07
    0.0355355       289.819         288.5      0.107422      0.735253      -6.40799             0      -4.40377      -2.97879             0       28.2256       1.05537             0       22.7391             0             0      0.223667   4.69034e-07     0.0275332        106266        103111        352444   8.59358e-07
     0.036036       289.907       288.504      0.108071      -1.50853      -6.84114             0      -4.25605      -2.94203             0       28.7477       1.71212             0       20.6141             0             0      0.223568   5.36725e-07     0.0279607        106282        103116        359382   9.83379e-07
    0.0365365       290.025       288.511      0.107376      -3.66158      -7.20867             0       -4.0226      -2.86542             0        28.208       1.94315             0        18.777             0             0      0.223304   6.86688e-07     0.0291074        106307        103119        366989   1.25814e-06
     0.037037       290.146       288.517      0.106667      -5.80444      -7.56901             0      -3.78421      -2.78531             0       27.5906       2.14148             0       16.9672             0             0      0.223037   8.44987e-07     0.0302654        106332        103123        374603   1.54817e-06
    0.0375375       290.284       288.526      0.105777      -7.81976      -7.83927             0      -3.48402      -2.66139             0       26.0016       1.93072             0       15.5004             0             0      0.222738    1.1076e-06     0.0315649        106365        103126        382314   2.02933e-06
     0.038038       290.421       288.534      0.104897      -9.81326      -8.09599             0       -3.1798       -2.5349             0       24.3928        1.7083             0        14.063             0             0      0.222419   1.38729e-06     0.0329486        106398        103128        389992   2.54176e-06
    0.0385385       290.549       288.541      0.104157      -11.5416      -8.18801             0      -2.82668       -2.3771             0       22.5431       1.34403             0       12.9833             0             0      0.221864   1.87449e-06     0.0353559        106437        103131        397265   3.43442e-06
     0.039039       290.673       288.548       0.10337      -13.2274      -8.25683             0      -2.47116      -2.21787             0       20.7234      0.982776             0        11.926             0             0      0.221285   2.38515e-06     0.0378707        106477        103133        404466   4.37004e-06
    0.0395395       290.733       288.553      0.102042      -14.4109      -8.05156             0      -2.08718      -2.04181             0       19.2579      0.657217             0       11.1323             0             0      0.220412   3.17303e-06     0.0416576        106521        103134        410823   5.81358e-06
      0.04004       290.779       288.558      0.100694      -15.5359      -7.82665             0      -1.70101      -1.86579             0        17.827      0.337624             0       10.3466             0             0      0.219514   3.94779e-06     0.0455545        106565        103135        417082   7.23308e-06
    0.0405405       290.669        288.56      0.099115      -15.9887      -7.37599             0       -1.2896      -1.69034             0       16.7938      0.086648             0       9.65226             0             0      0.218325   4.57169e-06     0.0507181        106607        103137        422213    8.3762e-06
     0.041041       290.547       288.563      0.097594      -16.3795      -6.90874             0     -0.875816      -1.51549             0       15.7766     -0.156796             0       8.96003             0             0      0.217099   5.12836e-06     0.0560429        106649        103138        427239   9.39611e-06
    0.0415415       290.304       288.566     0.0967263      -16.0748      -6.25577             0     -0.435579      -1.34748             0       14.9387     -0.315915             0       8.29159             0             0      0.215459   4.93224e-06     0.0631726        106686        103140        431080   9.03678e-06
     0.042042       290.067       288.569     0.0959374      -15.7206       -5.5943             0    0.00649008       -1.1809             0       14.1212     -0.461451             0       7.62131             0             0      0.213847   4.66743e-06     0.0701838        106723        103141        434825   8.55161e-06
    0.0425425       289.895       288.573     0.0960084       -14.826      -4.84008             0      0.468535      -1.02998             0       13.5268     -0.458856             0       6.93087             0             0      0.212534   3.65366e-06     0.0759027        106755        103143        437517   6.69419e-06
     0.043043       289.735       288.577     0.0960554      -13.9003      -4.09095             0      0.929664     -0.880866             0       12.9804     -0.446906             0       6.24051             0             0      0.211346   2.65064e-06     0.0810777        106787        103145        440122   4.85647e-06
    0.0435435       289.696        288.58     0.0958473      -12.6446      -3.39585             0       1.38105     -0.751077             0       12.9446     -0.335539             0       5.55104             0             0      0.211487   1.76185e-06     0.0804717        106814        103146        441820   3.22804e-06
     0.044044       289.659       288.584     0.0955358      -11.3716      -2.71269             0       1.83034     -0.623263             0       12.9639     -0.218649             0       4.86614             0             0      0.211692    9.2129e-07     0.0795888        106842        103148        443453   1.68797e-06
    0.0445445        289.65       288.587     0.0941526      -9.91897      -2.15325             0       2.25785     -0.515923             0        13.554    -0.0445295             0       4.22855             0             0      0.212556   5.80635e-07     0.0758368        106867        103150        444412   1.06383e-06
     0.045045        289.64       288.589     0.0926581      -8.45885      -1.60725             0       2.68032     -0.410867             0       14.1821      0.128237             0       3.59913             0             0      0.213309   2.59563e-07     0.0725679        106892        103153        445327   4.75567e-07
    0.0455455       289.623       288.591     0.0900373       -6.9227      -1.19716             0       3.05193     -0.328919             0        15.196      0.287324             0       3.05228             0             0      0.212937   1.36497e-07     0.0741838        106914        103155        445793   2.50088e-07