#           y             T         TMean   TPrime2Mean           U_x           U_y           U_z       UMean_x       UMean_y       UMean_z UPrime2Mea... UPrime2Mea... UPrime2Mea... UPrime2Mea... UPrime2Mea... UPrime2Mea...            O2           H2O          C3H8             p         pMean   pPrime2Mean           CO2
            0       287.761       288.303      0.223103       39.5768             0             0       15.2685             0             0       51.9049             0             0             0             0             0      0.209782   5.55186e-14     0.0879139        105731        103196        312695   1.01721e-13
  0.000500501       287.877       288.313      0.225022       39.3744     -0.306805             0       15.2631      0.020885             0       51.1829     0.0741895             0     0.0747812             0             0      0.203671   7.98014e-14      0.114483        105733        103196        312678   1.46211e-13
     0.001001       287.994       288.322      0.226946       39.1719     -0.613513             0       15.2578     0.0417718             0       50.4603      0.148391             0      0.149756             0             0       0.19755    1.0417e-13      0.141097        105734        103196        312661   1.90859e-13
    0.0015015       288.262       288.338      0.231017       38.8579     -0.872157             0       15.2579     0.0635317             0       49.4618      0.228744             0      0.321172             0             0      0.186313   1.71361e-13      0.189951        105741        103196        312590   3.13966e-13
     0.002002        288.53       288.354        0.2351       38.5449      -1.13084             0       15.2581     0.0852853             0       48.4673      0.308956             0       0.49305             0             0      0.175098     2.387e-13      0.238712        105747        103196        312519   4.37342e-13
    0.0025025       288.738       288.363      0.242107       38.4887      -1.39958             0       15.2869      0.105482             0       48.4536       0.35407             0      0.779608             0             0      0.169216   3.42599e-13      0.264282        105756        103196        312369   6.27704e-13
     0.003003       288.944       288.373      0.249121       38.4336      -1.66846             0       15.3159      0.125651             0       48.4438      0.398655             0       1.06696             0             0      0.163371   4.46601e-13      0.289693        105765        103195        312219   8.18256e-13
    0.0035035       289.017       288.377      0.257388       38.5836      -1.96165             0       15.3717      0.141193             0       49.0772      0.355477             0       1.48633             0             0      0.163599   5.67738e-13      0.288699        105774        103195        311943    1.0402e-12
     0.004004       289.089        288.38      0.265586       38.7345      -2.25534             0       15.4274      0.156696             0       49.7115      0.311423             0        1.9068             0             0      0.163845   6.88524e-13      0.287631        105784        103194        311665    1.2615e-12
    0.0045045       289.086       288.385      0.265168       39.0109      -2.61195             0       15.4858      0.167413             0       50.4661      0.158763             0        2.4636             0             0      0.166202   7.65684e-13       0.27738        105794        103193        311241   1.40288e-12
   0.00500501       289.083        288.39       0.26466       39.2891       -2.9695             0       15.5438       0.17812             0       51.2199    0.00561487             0       3.02143             0             0      0.168564   8.42028e-13      0.267108        105804        103193        310815   1.54275e-12
   0.00550551       289.037       288.398       0.25533       39.7402      -3.42083             0       15.5705      0.187914             0       51.8874     -0.195773             0       3.68083             0             0      0.171409   8.37525e-13      0.254741        105812        103192        310275    1.5345e-12
   0.00600601        288.99       288.406      0.245997       40.1916       -3.8726             0       15.5965      0.197754             0       52.5498     -0.396373             0       4.34066             0             0      0.174258   8.31656e-13      0.242354        105820        103191        309733   1.52375e-12
   0.00650651       288.922       288.415      0.236429       40.6609      -4.35965             0       15.5598      0.211341             0       52.7993     -0.532013             0       5.03513             0             0      0.177495   7.13254e-13      0.228279        105824        103190        309040   1.30681e-12
   0.00700701       288.855       288.424      0.226897       41.1275      -4.84644             0       15.5221      0.225008             0       53.0397     -0.665878             0       5.72942             0             0       0.18072   5.94257e-13      0.214256        105828        103189        308345   1.08879e-12
   0.00750751       288.798       288.433       0.21992       41.3923      -5.31416             0       15.4137      0.244352             0       52.6387     -0.674668             0        6.4104             0             0      0.183091   4.33433e-13      0.203951        105828        103188        307501    7.9413e-13
   0.00800801       288.742       288.441      0.212967       41.6534      -5.78152             0       15.3045      0.263753             0       52.2311     -0.682219             0       7.09128             0             0      0.185437   2.73694e-13      0.193748        105827        103187        306654   5.01458e-13
   0.00850851       288.722        288.45      0.207478       41.6874      -6.22764             0       15.1471      0.286649             0       51.4207     -0.613503             0        7.7669             0             0       0.18633    1.8069e-13      0.189866        105822        103185        305699   3.31058e-13
   0.00900901       288.703       288.459      0.202006        41.719      -6.67399             0       14.9893      0.309545             0       50.6107     -0.544949             0       8.44304             0             0      0.187217   8.87227e-14       0.18601        105818        103184        304741   1.62557e-13
   0.00950951       288.699       288.469      0.197459       41.6243      -7.13278             0       14.8137      0.332398             0       49.8271     -0.485292             0       9.14717             0             0      0.187784   5.32902e-14      0.183548        105809        103183        303670   9.76376e-14
      0.01001       288.696       288.479      0.192944       41.5287      -7.59274             0       14.6381      0.355242             0       49.0442     -0.425969             0       9.85192             0             0      0.188354   1.84213e-14       0.18107        105801        103182        302596   3.37512e-14
    0.0105105       288.702        288.49      0.189936       41.3953      -8.10996             0       14.4567      0.377623             0        48.302      -0.38303             0       10.5866             0             0      0.189106   1.11672e-14      0.177797        105790        103180        301401   2.04604e-14
     0.011011       288.708       288.501      0.186999       41.2595      -8.62783             0        14.275      0.400054             0       47.5518     -0.338905             0       11.3211             0             0      0.189866   4.04993e-15      0.174495        105779        103179        300203   7.42023e-15
    0.0115115       288.721       288.511      0.187214       41.0125       -9.1743             0       14.0775      0.424673             0       46.4428     -0.242032             0       12.0479             0             0      0.190931   3.01278e-15      0.169865        105765        103178        298895   5.51998e-15
     0.012012       288.733       288.521       0.18748       40.7596      -9.71979             0       13.8795      0.449348             0       45.3187     -0.143279             0       12.7737             0             0      0.191995   1.99608e-15      0.165239        105752        103176        297587   3.65719e-15
    0.0125125       288.745        288.53      0.189836       40.2707      -10.2252             0       13.6576      0.476312             0       43.5755      0.031891             0       13.4655             0             0      0.193022   1.81085e-15      0.160771        105737        103175        296292   3.31782e-15
     0.013013       288.756       288.539       0.19215       39.7773      -10.7292             0       13.4353      0.503257             0       41.8207      0.207446             0       14.1564             0             0      0.194037   1.62916e-15      0.156358        105723        103174        294997   2.98493e-15
    0.0135135       288.765       288.546      0.192928        39.114      -11.1806             0       13.2006      0.529462             0       39.6319      0.397429             0       14.8163             0             0      0.194589   1.58012e-15      0.153956        105710        103172        293764   2.89508e-15
     0.014014       288.774       288.554      0.193638       38.4503      -11.6311             0       12.9659      0.555626             0       37.4426      0.586282             0       15.4743             0             0      0.195129   1.53168e-15      0.151608        105696        103171        292534   2.80633e-15
    0.0145145        288.79        288.56       0.19202       37.7719      -12.0533             0       12.7295      0.580404             0       35.2383        0.7359             0       16.0633             0             0      0.195235   1.50401e-15      0.151146        105685        103170        291408   2.75562e-15
     0.015015       288.805       288.567      0.190372       37.0947      -12.4748             0       12.4927      0.605257             0       33.0425      0.884225             0       16.6471             0             0      0.195338   1.47643e-15      0.150701        105674        103169        290287   2.70509e-15
    0.0155155       288.827       288.573      0.187793       36.4572      -12.8706             0       12.2452      0.632561             0        31.122      0.990745             0       17.0637             0             0      0.195309   1.45195e-15      0.150826        105666        103168        289305   2.66024e-15
     0.016016        288.85       288.579      0.185243       35.8191      -13.2642             0       11.9971      0.659997             0       29.2139       1.09486             0       17.4733             0             0      0.195278   1.42781e-15       0.15096        105658        103167        288327   2.61601e-15
    0.0165165       288.871       288.583      0.183579        35.161      -13.5907             0       11.7302      0.691455             0       27.6816       1.12626             0       17.6702             0             0       0.19519   1.41404e-15      0.151344        105652        103167        287483   2.59079e-15
     0.017017       288.893       288.587      0.181976       34.4999      -13.9138             0       11.4631      0.722905             0       26.1637       1.15207             0       17.8618             0             0      0.195108   1.40067e-15      0.151698        105646        103166        286644   2.56628e-15
    0.0175175       288.909       288.589       0.18211       33.7545      -14.1417             0       11.1866       0.75414             0        25.053       1.01885             0       17.9023             0             0      0.195218   1.39839e-15      0.151222        105641        103165        285921   2.56211e-15
     0.018018       288.926       288.591      0.182314       33.0055      -14.3666             0       10.9102      0.785232             0       23.9573      0.878559             0       17.9395             0             0      0.195344   1.39639e-15      0.150673        105637        103165        285203   2.55845e-15
    0.0185185       288.935       288.592      0.184418       32.1614      -14.5099             0       10.6344      0.812483             0       23.2612       0.54919             0       17.8881             0             0      0.195925   1.40185e-15       0.14815        105633        103165        284624   2.56845e-15
     0.019019       288.943       288.592      0.186584        31.314      -14.6503             0       10.3588      0.839616             0        22.578      0.215505             0       17.8334             0             0      0.196507   1.40744e-15      0.145621        105630        103164        284050   2.57869e-15
    0.0195195        288.95       288.591      0.190336        30.384      -14.7171             0       10.0866      0.863742             0        22.217     -0.227452             0       17.6939             0             0      0.197124    1.4165e-15      0.142939        105627        103164        283635   2.59529e-15
      0.02002       288.957        288.59      0.194147       29.4511      -14.7811             0       9.81449      0.887875             0       21.8658     -0.668923             0       17.5505             0             0      0.197728   1.42552e-15      0.140311        105625        103164        283224   2.61181e-15
    0.0205205       288.968        288.59      0.199367         28.45       -14.777             0       9.54578      0.912167             0       21.7472      -1.07472             0       17.3119             0             0      0.198033   1.43342e-15      0.138986        105622        103164        282930   2.62629e-15
     0.021021        288.98        288.59      0.204687       27.4468      -14.7705             0       9.27759      0.936683             0       21.6315      -1.47457             0       17.0684             0             0      0.198331   1.44121e-15      0.137689        105620        103164        282642   2.64057e-15
    0.0215215       288.992        288.59      0.212288       26.3948      -14.7084             0       9.02131      0.966284             0       21.5847      -1.73874             0       16.7121             0             0      0.198482    1.4466e-15      0.137035        105619        103165        282510   2.65044e-15
     0.022022       289.004       288.591      0.220035       25.3416      -14.6439             0       8.76631        0.9959             0       21.5307      -1.99288             0       16.3525             0             0      0.198629   1.45189e-15      0.136396        105618        103165        282386   2.66013e-15
    0.0225225       289.016       288.594      0.230954       24.2621       -14.527             0       8.53925       1.02583             0       21.3184      -2.02917             0       15.9205             0             0        0.1987   1.45503e-15      0.136085        105616        103165        282450   2.66589e-15
     0.023023       289.027       288.597      0.241878       23.1823      -14.4075             0       8.31341       1.05598             0       21.1042      -2.05886             0       15.4877             0             0      0.198769   1.45816e-15      0.135787        105615        103166        282523   2.67161e-15
    0.0235235        289.04       288.599       0.25289       22.0931      -14.2363             0       8.11274       1.09043             0       20.8475      -1.95179             0        15.038             0             0      0.198778   1.46076e-15       0.13575        105612        103166        282794   2.67639e-15
     0.024024       289.053       288.602      0.263778       21.0046      -14.0626             0       7.91306       1.12513             0       20.5966      -1.84036             0       14.5886             0             0      0.198784   1.46333e-15      0.135724        105610        103166        283073    2.6811e-15
    0.0245245       289.067       288.603      0.272208       19.9272       -13.838             0       7.73297       1.16481             0       20.4581      -1.64254             0       14.1455             0             0      0.198735    1.4652e-15      0.135936        105608        103167        283528   2.68452e-15
     0.025025       289.081       288.606       0.28057       18.8515      -13.6106             0       7.55369       1.20456             0       20.3312      -1.44015             0       13.7035             0             0      0.198683   1.46701e-15       0.13616        105606        103167        283993   2.68784e-15
    0.0255255       289.094       288.611      0.287659        17.807      -13.3295             0       7.38968       1.24569             0       20.4223      -1.15087             0       13.2827             0             0      0.198579   1.46775e-15      0.136613        105605        103167        284638   2.68919e-15
     0.026026       289.108       288.617      0.294614       16.7655      -13.0451             0       7.22606       1.28724             0       20.5381     -0.866524             0        12.865             0             0      0.198462   1.46841e-15      0.137124        105605        103167        285294    2.6904e-15
    0.0265265       289.137       288.623      0.299107       15.7783      -12.7009             0       7.06981       1.33654             0       21.1031      -0.67224             0       12.5044             0             0        0.1981   1.46769e-15      0.138695        105606        103168        286146   2.68908e-15
     0.027027       289.166       288.629      0.303312       14.7958      -12.3532             0       6.91462       1.38596             0       21.6842     -0.486681             0       12.1501             0             0       0.19773   1.46686e-15      0.140305        105607        103168        287007   2.68756e-15
    0.0275275       289.205       288.632       0.30245       13.8943      -11.9445             0       6.77822       1.43745             0       22.5472     -0.453963             0       11.9074             0             0      0.197197   1.46421e-15      0.142623        105609        103168        288016   2.68271e-15
     0.028028       289.243       288.634      0.301243       12.9987       -11.533             0       6.64428        1.4885             0       23.3966     -0.424696             0       11.6714             0             0      0.196672   1.46152e-15      0.144904        105611        103168        289030   2.67777e-15
    0.0285285       289.269       288.632       0.29423       12.2028       -11.073             0       6.55179         1.532             0       24.0163     -0.453625             0       11.5478             0             0      0.196286   1.45795e-15      0.146585        105613        103168        290146   2.67123e-15
     0.029029       289.294       288.629      0.287056       11.4129      -10.6119             0       6.46266       1.57466             0       24.5969       -0.4791             0       11.4294             0             0      0.195908   1.45434e-15      0.148227        105616        103168        291270   2.66463e-15
    0.0295295       289.307       288.624      0.277274         10.72      -10.1325             0        6.4282       1.60359             0        24.542     -0.448487             0       11.3947             0             0      0.195677   1.45021e-15      0.149231        105618        103168        292515   2.65705e-15
      0.03003       289.319        288.62      0.267499        10.031      -9.65479             0       6.39689        1.6316             0        24.441     -0.413369             0       11.3631             0             0      0.195443   1.44575e-15      0.150248        105620        103168        293768   2.64889e-15
    0.0305305       289.324       288.616      0.257852       9.40209      -9.20214             0       6.41484       1.64507             0       23.6186     -0.307659             0       11.3815             0             0      0.195162   1.43638e-15       0.15147        105621        103167        295121   2.63172e-15
     0.031031       289.329       288.612      0.248126        8.7742      -8.75267             0       6.43475        1.6577             0       22.7641      -0.20202             0       11.4021             0             0       0.19486     1.426e-15      0.152783        105623        103167        296479   2.61269e-15
    0.0315315       289.332       288.611      0.237216       8.16208      -8.35145             0       6.48437       1.65777             0       21.4242    -0.0974339             0       11.4553             0             0       0.19424   1.40019e-15      0.155478        105623        103167        297914    2.5654e-15
     0.032032       289.334        288.61      0.226217       7.55238      -7.95178             0       6.53461       1.65724             0       20.0781    0.00203804             0       11.5096             0             0      0.193617   1.37327e-15      0.158187        105623        103167        299350   2.51609e-15
    0.0325325       289.323       288.612      0.213926       6.97813      -7.57482             0       6.59393       1.64782             0       18.6407     0.0267191             0        11.581             0             0       0.19295   1.33022e-15      0.161086        105622        103167        300817   2.43721e-15
     0.033033       289.311       288.613      0.201702       6.41461      -7.19674             0       6.65327        1.6381             0       17.2173     0.0445444             0       11.6524             0             0      0.192304   1.28635e-15      0.163895        105621        103167        302280   2.35684e-15
    0.0335335       289.279       288.614      0.190436        6.0028      -6.80279             0        6.7129       1.62407             0        15.991    -0.0346478             0       11.7233             0             0      0.191948   1.23106e-15      0.165445        105618        103167        303697   2.25552e-15
     0.034034       289.246       288.616      0.179328       5.60832      -6.40767             0       6.77279       1.60986             0       14.7813     -0.120193             0       11.7937             0             0      0.191605   1.17606e-15      0.166937        105616        103166        305112   2.15476e-15
    0.0345345       289.212       288.617      0.170395       5.45119      -5.99668             0       6.83632       1.59313             0       13.7975     -0.292807             0       11.8558             0             0      0.191441   1.12517e-15       0.16765        105614        103167        306502   2.06153e-15
     0.035035        289.18       288.618      0.161621       5.30667      -5.58621             0       6.90065       1.57628             0       12.8219     -0.472824             0       11.9163             0             0      0.191281    1.0755e-15      0.168346        105612        103167        307887   1.97051e-15
    0.0355355       289.162       288.618      0.154964       5.32959      -5.18279             0       6.97548       1.55797             0       11.9545     -0.751182             0       11.9559             0             0      0.191169   1.04183e-15      0.168831        105610        103167        309208   1.90883e-15
     0.036036       289.145       288.618      0.148421         5.356       -4.7814             0       7.05077       1.53953             0       11.0991      -1.03793             0       11.9899             0             0      0.191058   1.00936e-15      0.169315        105609        103167        310516   1.84933e-15
    0.0365365       289.138       288.618      0.143342       5.42734      -4.40601             0         7.132       1.51954             0       10.3983      -1.43286             0       11.9519             0             0      0.190949   9.92208e-16      0.169789        105609        103167        311669   1.81791e-15
     0.037037       289.132       288.619      0.138339       5.50192      -4.03337             0       7.21245       1.49917             0       9.72576      -1.83368             0       11.9042             0             0      0.190838   9.76279e-16      0.170273        105609        103168        312813   1.78872e-15
    0.0375375       289.132        288.62      0.134288       5.61704      -3.69502             0        7.2831       1.47398             0       9.40629      -2.30829             0       11.7354             0             0      0.190702   9.75612e-16      0.170865        105612        103168        313833    1.7875e-15
     0.038038       289.132       288.621      0.130284       5.73995      -3.35986             0        7.3523       1.44836             0       9.12559      -2.78446             0       11.5556             0             0      0.190565   9.76046e-16       0.17146        105615        103169        314842    1.7883e-15
    0.0385385       289.135       288.622      0.126852        5.9576      -3.06347             0       7.40377       1.41757             0       9.31626      -3.27961             0       11.2422             0             0      0.190417   9.89868e-16      0.172103        105621        103170        315711   1.81362e-15
     0.039039       289.138       288.624      0.123432        6.1787       -2.7701             0       7.45344       1.38638             0       9.55462      -3.77167             0       10.9173             0             0      0.190277   1.00492e-15      0.172713        105627        103171        316565   1.84121e-15
    0.0395395        289.14       288.625      0.120143       6.44069      -2.51231             0       7.48174       1.35058             0       10.3565      -4.22724             0       10.4559             0             0      0.190225   1.03455e-15      0.172938        105636        103172        317232   1.89549e-15
      0.04004       289.141       288.627      0.116851       6.69248      -2.25724             0       7.50759       1.31438             0       11.2155      -4.67388             0       9.98394             0             0      0.190194    1.0659e-15      0.173071        105644        103173        317887   1.95292e-15
    0.0405405       289.129       288.627      0.113515       6.82684      -2.03347             0       7.50526       1.27349             0       12.7304      -5.01781             0       9.39175             0             0      0.190411   1.11699e-15      0.172127        105654        103174        318409   2.04654e-15
     0.041041       289.116       288.627      0.110158       6.94764      -1.81132             0       7.49986       1.23214             0        14.295      -5.34768             0       8.79173             0             0      0.190639   1.16926e-15      0.171136        105665        103175        318920   2.14231e-15
    0.0415415        289.09       288.624      0.106571        6.9166      -1.60736             0       7.46012       1.18565             0       16.4178      -5.52023             0       8.10398             0             0       0.19099   1.23466e-15       0.16961        105675        103177        319309   2.26212e-15
     0.042042       289.065       288.621      0.103026       6.88724      -1.40292             0       7.41702       1.13854             0       18.5642       -5.6778             0        7.4131             0             0      0.191319   1.30022e-15      0.168181        105686        103178        319683   2.38224e-15
    0.0425425       289.047       288.617     0.0999416       6.87619      -1.19332             0       7.33729       1.08463             0       20.9683      -5.67211             0       6.68812             0             0      0.191404   1.36754e-15      0.167811        105696        103180        319894   2.50559e-15
     0.043043       289.031       288.613     0.0969952        6.8747     -0.983371             0       7.25473       1.03011             0       23.3761      -5.65422             0        5.9658             0             0       0.19144   1.43552e-15      0.167653        105706        103181        320099   2.63014e-15
    0.0435435       289.035       288.608     0.0955149       6.97485      -0.76963             0       7.14207      0.969043             0       25.8227      -5.50675             0       5.27171             0             0      0.190956   1.51051e-15      0.169757        105714        103182        320227   2.76753e-15
     0.044044        289.04       288.603      0.094203       7.05995     -0.559446             0       7.02717       0.90728             0        28.271        -5.352             0       4.58328             0             0      0.190431    1.5862e-15      0.172041        105721        103184        320351   2.90621e-15
    0.0445445        289.06       288.599     0.0946373       6.98918     -0.386114             0       6.88912      0.838325             0        30.738      -5.12181             0       3.95345             0             0      0.189477   1.66916e-15      0.176185        105727        103185        320441   3.05821e-15
     0.045045       289.082       288.594     0.0952468       6.87141     -0.219489             0       6.74871      0.768568             0       33.2041      -4.88655             0       3.32996             0             0      0.188497   1.75343e-15      0.180449        105732        103187        320523   3.21261e-15
    0.0455455       289.118        288.59     0.0976292       6.27848     -0.120683             0       6.58448      0.690697             0       35.6628      -4.60005             0       2.77054             0             0      0.187237    1.8509e-15      0.185926        105734        103188        320520   3.39119e-15