# vtk DataFile Version 2.0
sampleSurface
ASCII
DATASET POLYDATA
POINTS 16001 float
0 0 0.0005 0 0.001 0.0005 0.001 0 0.0005 -0.001 0
0.0005 0.001 0.001 0.0005 -0.001 0.001 0.0005 0.002 0 0.0005
0 0.002 0.0005 -0.002 0 0.0005 0.002 0.001 0.0005 0.001
0.002 0.0005 -0.002 0.001 0.0005 -0.001 0.002 0.0005 0.002 0.002
0.0005 -0.002 0.002 0.0005 0.003 0 0.0005 0 0.003 0.0005
-0.003 0 0.0005 0.003 0.001 0.0005 0.001 0.003 0.0005 -0.003
0.001 0.0005 -0.001 0.003 0.0005 0.003 0.002 0.0005 0.002 0.003
0.0005 -0.003 0.002 0.0005 -0.002 0.003 0.0005 0.004 0 0.0005
0 0.004 0.0005 -0.004 0 0.0005 0.004 0.001 0.0005 0.001
0.004 0.0005 -0.004 0.001 0.0005 -0.001 0.004 0.0005 0.003 0.003
0.0005 -0.003 0.003 0.0005 0.004 0.002 0.0005 0.002 0.004 0.0005
-0.004 0.002 0.0005 -0.002 0.004 0.0005 0.004 0.003 0.0005 0.003
0.004 0.0005 -0.004 0.003 0.0005 -0.003 0.004 0.0005 0.005 0
0.0005 0 0.005 0.0005 -0.005 0 0.0005 0.005 0.001 0.0005
0.001 0.005 0.0005 -0.005 0.001 0.0005 -0.001 0.005 0.0005 0.005
0.002 0.0005 0.002 0.005 0.0005 -0.005 0.002 0.0005 -0.002 0.005
0.0005 0.004 0.004 0.0005 -0.004 0.004 0.0005 0.005 0.003 0.0005
0.003 0.005 0.0005 -0.005 0.003 0.0005 -0.003 0.005 0.0005 0.006
0 0.0005 0 0.006 0.0005 -0.006 0 0.0005 0.006 0.001
0.0005 0.001 0.006 0.0005 -0.006 0.001 0.0005 -0.001 0.006 0.0005
0.006 0.002 0.0005 0.002 0.006 0.0005 -0.006 0.002 0.0005 -0.002
0.006 0.0005 0.005 0.004 0.0005 0.004 0.005 0.0005 -0.005 0.004
0.0005 -0.004 0.005 0.0005 0.006 0.003 0.0005 0.003 0.006 0.0005
-0.006 0.003 0.0005 -0.003 0.006 0.0005 0.007 0 0.0005 0
0.007 0.0005 -0.007 0 0.0005 0.007 0.001 0.0005 0.005 0.005
0.0005 0.001 0.007 0.0005 -0.007 0.001 0.0005 -0.005 0.005 0.0005
-0.001 0.007 0.0005 0.006 0.004 0.0005 0.004 0.006 0.0005 -0.006
0.004 0.0005 -0.004 0.006 0.0005 0.007 0.002 0.0005 0.002 0.007
0.0005 -0.007 0.002 0.0005 -0.002 0.007 0.0005 0.007 0.003 0.0005
0.003 0.007 0.0005 -0.007 0.003 0.0005 -0.003 0.007 0.0005 0.006
0.005 0.0005 0.005 0.006 0.0005 -0.006 0.005 0.0005 -0.005 0.006
0.0005 0.008 0 0.0005 0 0.008 0.0005 -0.008 0 0.0005
0.008 0.001 0.0005 0.001 0.008 0.0005 -0.008 0.001 0.0005 -0.001
0.008 0.0005 0.007 0.004 0.0005 0.004 0.007 0.0005 -0.007 0.004
0.0005 -0.004 0.007 0.0005 0.008 0.002 0.0005 0.002 0.008 0.0005
-0.008 0.002 0.0005 -0.002 0.008 0.0005 0.006 0.006 0.0005 -0.006
0.006 0.0005 0.008 0.003 0.0005 0.003 0.008 0.0005 -0.008 0.003
0.0005 -0.003 0.008 0.0005 0.007 0.005 0.0005 0.005 0.007 0.0005
-0.007 0.005 0.0005 -0.005 0.007 0.0005 0.008 0.004 0.0005 0.004
0.008 0.0005 -0.008 0.004 0.0005 -0.004 0.008 0.0005 0.009 0
0.0005 0 0.009 0.0005 -0.009 0 0.0005 0.009 0.001 0.0005
0.001 0.009 0.0005 -0.009 0.001 0.0005 -0.001 0.009 0.0005 0.009
0.002 0.0005 0.002 0.009 0.0005 -0.009 0.002 0.0005 -0.002 0.009
0.0005 0.007 0.006 0.0005 0.006 0.007 0.0005 -0.007 0.006 0.0005
-0.006 0.007 0.0005 0.008 0.005 0.0005 0.005 0.008 0.0005 -0.008
0.005 0.0005 -0.005 0.008 0.0005 0.009 0.003 0.0005 0.003 0.009
0.0005 -0.009 0.003 0.0005 -0.003 0.009 0.0005 0.009 0.004 0.0005
0.004 0.009 0.0005 -0.009 0.004 0.0005 -0.004 0.009 0.0005 0.007
0.007 0.0005 -0.007 0.007 0.0005 0.008 0.006 0.0005 0.006 0.008
0.0005 -0.008 0.006 0.0005 -0.006 0.008 0.0005 0.01 0 0.0005
0 0.01 0.0005 -0.01 0 0.0005 0.01 0.001 0.0005 0.001
0.01 0.0005 -0.01 0.001 0.0005 -0.001 0.01 0.0005 0.01 0.002
0.0005 0.002 0.01 0.0005 -0.01 0.002 0.0005 -0.002 0.01 0.0005
0.009 0.005 0.0005 0.005 0.009 0.0005 -0.009 0.005 0.0005 -0.005
0.009 0.0005 0.01 0.003 0.0005 0.003 0.01 0.0005 -0.01 0.003
0.0005 -0.003 0.01 0.0005 0.008 0.007 0.0005 0.007 0.008 0.0005
-0.008 0.007 0.0005 -0.007 0.008 0.0005 0.01 0.004 0.0005 0.004
0.01 0.0005 -0.01 0.004 0.0005 -0.004 0.01 0.0005 0.009 0.006
0.0005 0.006 0.009 0.0005 -0.009 0.006 0.0005 -0.006 0.009 0.0005
0.011 0 0.0005 0 0.011 0.0005 -0.011 0 0.0005 0.011
0.001 0.0005 0.001 0.011 0.0005 -0.011 0.001 0.0005 -0.001 0.011
0.0005 0.011 0.002 0.0005 0.002 0.011 0.0005 -0.011 0.002 0.0005
-0.002 0.011 0.0005 0.01 0.005 0.0005 0.005 0.01 0.0005 -0.01
0.005 0.0005 -0.005 0.01 0.0005 0.008 0.008 0.0005 -0.008 0.008
0.0005 0.011 0.003 0.0005 0.009 0.007 0.0005 0.007 0.009 0.0005
0.003 0.011 0.0005 -0.011 0.003 0.0005 -0.009 0.007 0.0005 -0.007
0.009 0.0005 -0.003 0.011 0.0005 0.01 0.006 0.0005 0.006 0.01
0.0005 -0.01 0.006 0.0005 -0.006 0.01 0.0005 0.011 0.004 0.0005
0.004 0.011 0.0005 -0.011 0.004 0.0005 -0.004 0.011 0.0005 0.012
0 0.0005 0 0.012 0.0005 -0.012 0 0.0005 0.012 0.001
0.0005 0.009 0.008 0.0005 0.008 0.009 0.0005 0.001 0.012 0.0005
-0.012 0.001 0.0005 -0.009 0.008 0.0005 -0.008 0.009 0.0005 -0.001
0.012 0.0005 0.011 0.005 0.0005 0.005 0.011 0.0005 -0.011 0.005
0.0005 -0.005 0.011 0.0005 0.012 0.002 0.0005 0.002 0.012 0.0005
-0.012 0.002 0.0005 -0.002 0.012 0.0005 0.01 0.007 0.0005 0.007
0.01 0.0005 -0.01 0.007 0.0005 -0.007 0.01 0.0005 0.012 0.003
0.0005 0.003 0.012 0.0005 -0.012 0.003 0.0005 -0.003 0.012 0.0005
0.011 0.006 0.0005 0.006 0.011 0.0005 -0.011 0.006 0.0005 -0.006
0.011 0.0005 0.012 0.004 0.0005 0.004 0.012 0.0005 -0.012 0.004
0.0005 -0.004 0.012 0.0005 0.009 0.009 0.0005 -0.009 0.009 0.0005
0.01 0.008 0.0005 0.008 0.01 0.0005 -0.01 0.008 0.0005 -0.008
0.01 0.0005 0.013 0 0.0005 0 0.013 0.0005 -0.013 0
0.0005 0.012 0.005 0.0005 0.005 0.012 0.0005 -0.012 0.005 0.0005
-0.005 0.012 0.0005 0.013 0.001 0.0005 0.011 0.007 0.0005 0.007
0.011 0.0005 0.001 0.013 0.0005 -0.013 0.001 0.0005 -0.011 0.007
0.0005 -0.007 0.011 0.0005 -0.001 0.013 0.0005 0.013 0.002 0.0005
0.002 0.013 0.0005 -0.013 0.002 0.0005 -0.002 0.013 0.0005 0.013
0.003 0.0005 0.003 0.013 0.0005 -0.013 0.003 0.0005 -0.003 0.013
0.0005 0.012 0.006 0.0005 0.006 0.012 0.0005 -0.012 0.006 0.0005
-0.006 0.012 0.0005 0.01 0.009 0.0005 0.009 0.01 0.0005 -0.01
0.009 0.0005 -0.009 0.01 0.0005 0.013 0.004 0.0005 0.011 0.008
0.0005 0.008 0.011 0.0005 0.004 0.013 0.0005 -0.013 0.004 0.0005
-0.011 0.008 0.0005 -0.008 0.011 0.0005 -0.004 0.013 0.0005 0.012
0.007 0.0005 0.007 0.012 0.0005 -0.012 0.007 0.0005 -0.007 0.012
0.0005 0.013 0.005 0.0005 0.005 0.013 0.0005 -0.013 0.005 0.0005
-0.005 0.013 0.0005 0.014 0 0.0005 0 0.014 0.0005 -0.014
0 0.0005 0.014 0.001 0.0005 0.001 0.014 0.0005 -0.014 0.001
0.0005 -0.001 0.014 0.0005 0.014 0.002 0.0005 0.01 0.01 0.0005
0.002 0.014 0.0005 -0.014 0.002 0.0005 -0.01 0.01 0.0005 -0.002
0.014 0.0005 0.011 0.009 0.0005 0.009 0.011 0.0005 -0.011 0.009
0.0005 -0.009 0.011 0.0005 0.013 0.006 0.0005 0.006 0.013 0.0005
-0.013 0.006 0.0005 -0.006 0.013 0.0005 0.014 0.003 0.0005 0.003
0.014 0.0005 -0.014 0.003 0.0005 -0.003 0.014 0.0005 0.012 0.008
0.0005 0.008 0.012 0.0005 -0.012 0.008 0.0005 -0.008 0.012 0.0005
0.014 0.004 0.0005 0.004 0.014 0.0005 -0.014 0.004 0.0005 -0.004
0.014 0.0005 0.013 0.007 0.0005 0.007 0.013 0.0005 -0.013 0.007
0.0005 -0.007 0.013 0.0005 0.011 0.01 0.0005 0.01 0.011 0.0005
-0.011 0.01 0.0005 -0.01 0.011 0.0005 0.014 0.005 0.0005 0.005
0.014 0.0005 -0.014 0.005 0.0005 -0.005 0.014 0.0005 0.015 0
0.0005 0.012 0.009 0.0005 0.009 0.012 0.0005 0 0.015 0.0005
-0.015 0 0.0005 -0.012 0.009 0.0005 -0.009 0.012 0.0005 0.015
0.001 0.0005 0.001 0.015 0.0005 -0.015 0.001 0.0005 -0.001 0.015
0.0005 0.015 0.002 0.0005 0.002 0.015 0.0005 -0.015 0.002 0.0005
-0.002 0.015 0.0005 0.014 0.006 0.0005 0.006 0.014 0.0005 -0.014
0.006 0.0005 -0.006 0.014 0.0005 0.013 0.008 0.0005 0.008 0.013
0.0005 -0.013 0.008 0.0005 -0.008 0.013 0.0005 0.015 0.003 0.0005
0.003 0.015 0.0005 -0.015 0.003 0.0005 -0.003 0.015 0.0005 0.015
0.004 0.0005 0.004 0.015 0.0005 -0.015 0.004 0.0005 -0.004 0.015
0.0005 0.011 0.011 0.0005 -0.011 0.011 0.0005 0.012 0.01 0.0005
0.01 0.012 0.0005 -0.012 0.01 0.0005 -0.01 0.012 0.0005 0.014
0.007 0.0005 0.007 0.014 0.0005 -0.014 0.007 0.0005 -0.007 0.014
0.0005 0.015 0.005 0.0005 0.013 0.009 0.0005 0.009 0.013 0.0005
0.005 0.015 0.0005 -0.015 0.005 0.0005 -0.013 0.009 0.0005 -0.009
0.013 0.0005 -0.005 0.015 0.0005 0.016 0 0.0005 0 0.016
0.0005 -0.016 0 0.0005 0.016 0.001 0.0005 0.001 0.016 0.0005
-0.016 0.001 0.0005 -0.001 0.016 0.0005 0.016 0.002 0.0005 0.002
0.016 0.0005 -0.016 0.002 0.0005 -0.002 0.016 0.0005 0.014 0.008
0.0005 0.008 0.014 0.0005 -0.014 0.008 0.0005 -0.008 0.014 0.0005
0.015 0.006 0.0005 0.006 0.015 0.0005 -0.015 0.006 0.0005 -0.006
0.015 0.0005 0.016 0.003 0.0005 0.012 0.011 0.0005 0.011 0.012
0.0005 0.003 0.016 0.0005 -0.016 0.003 0.0005 -0.012 0.011 0.0005
-0.011 0.012 0.0005 -0.003 0.016 0.0005 0.013 0.01 0.0005 0.01
0.013 0.0005 -0.013 0.01 0.0005 -0.01 0.013 0.0005 0.016 0.004
0.0005 0.004 0.016 0.0005 -0.016 0.004 0.0005 -0.004 0.016 0.0005
0.015 0.007 0.0005 0.007 0.015 0.0005 -0.015 0.007 0.0005 -0.007
0.015 0.0005 0.014 0.009 0.0005 0.009 0.014 0.0005 -0.014 0.009
0.0005 -0.009 0.014 0.0005 0.016 0.005 0.0005 0.005 0.016 0.0005
-0.016 0.005 0.0005 -0.005 0.016 0.0005 0.012 0.012 0.0005 -0.012
0.012 0.0005 0.015 0.008 0.0005 0.008 0.015 0.0005 -0.015 0.008
0.0005 -0.008 0.015 0.0005 0.017 0 0.0005 0 0.017 0.0005
-0.017 0 0.0005 0.013 0.011 0.0005 0.011 0.013 0.0005 -0.013
0.011 0.0005 -0.011 0.013 0.0005 0.017 0.001 0.0005 0.001 0.017
0.0005 -0.017 0.001 0.0005 -0.001 0.017 0.0005 0.016 0.006 0.0005
0.006 0.016 0.0005 -0.016 0.006 0.0005 -0.006 0.016 0.0005 0.017
0.002 0.0005 0.002 0.017 0.0005 -0.017 0.002 0.0005 -0.002 0.017
0.0005 0.014 0.01 0.0005 0.01 0.014 0.0005 -0.014 0.01 0.0005
-0.01 0.014 0.0005 0.017 0.003 0.0005 0.003 0.017 0.0005 -0.017
0.003 0.0005 -0.003 0.017 0.0005 0.016 0.007 0.0005 0.007 0.016
0.0005 -0.016 0.007 0.0005 -0.007 0.016 0.0005 0.017 0.004 0.0005
0.004 0.017 0.0005 -0.017 0.004 0.0005 -0.004 0.017 0.0005 0.015
0.009 0.0005 0.009 0.015 0.0005 -0.015 0.009 0.0005 -0.009 0.015
0.0005 0.013 0.012 0.0005 0.012 0.013 0.0005 -0.012 0.013 0.0005
-0.013 0.012 0.0005 0.017 0.005 0.0005 0.005 0.017 0.0005 -0.017
0.005 0.0005 -0.005 0.017 0.0005 0.014 0.011 0.0005 0.011 0.014
0.0005 -0.014 0.011 0.0005 -0.011 0.014 0.0005 0.016 0.008 0.0005
0.008 0.016 0.0005 -0.016 0.008 0.0005 -0.008 0.016 0.0005 0.018
[...]
POINT_DATA 16001
FIELD attributes 17
p 1 16001 float
110211 110204 110187 110239 110181 110231 110160 110184 110274 110156 110164
110265 110208 110143 110241 110125 110149 110319 110123 110133 110310
110170 110115 110118 110283 110200 110080 110101 110371 110080 110090
110360 110120 110094 110240 110075 110078 110331 110147 110059 110058
110287 110187 110025 110042 110425 110026 110036 110414 110058 110022
110027 110384 110085 110024 110235 110009 110009 110341 110126 109963
109975 110474 109963 109974 110463 109987 109961 109968 110436 110017
109977 109975 110293 110180 109950 109949 110397 110065 109895 109897
110515 109896 109929 109908 110506 110247 109911 109925 109910 110356
110129 109894 109910 110485 109947 109889 109888 110454 110007 109886
109864 110319 110207 109828 109809 110545 109830 109833 110540 109826
109872 109839 110422 110085 109831 109845 110526 109876 109828 110290
109832 109816 110506 109952 109844 109787 110395 110176 109825 109745
110485 110049 109768 109692 110567 109771 109722 110565 109740 109775
109752 110560 109812 109795 109756 110375 110271 109807 109684 110466
110156 109783 109728 110551 109906 109783 109638 110540 110023 109728
110364 109764 109662 110453 110262 109716 109539 110583 109720 109595
110583 109634 109727 109635 110585 109756 109771 109558 110530 110144
109738 109616 110585 109865 109705 109642 110446 110361 109740 109529
110584 110003 109735 109550 110522 110260 109670 109252 110594 109675
109398 110596 109570 109684 109467 110602 109731 109730 109429 110581
110136 109630 110446 109696 109688 109544 109468 110610 110518 110364
109845 109701 109430 110578 110259 109698 109433 110617 109995 109623
109043 110599 109629 109628 109545 109305 110603 110518 110449 108931
109687 109328 110622 110133 109640 109357 110612 108721 109667 109442
110576 110367 109653 109394 110626 108556 109657 109325 110624 110259
109656 109384 110640 108420 109560 110521 109620 109454 110577 110453
109571 109112 110603 109642 109287 110652 108268 109578 109618 109345
109278 110607 110625 110368 108894 109591 109328 110619 108697 109605
109363 110636 108542 109614 109266 110661 108084 109561 109471 110579
110524 109610 109577 109364 109323 110657 110627 110454 108409 109551
109278 110666 107845 109596 109229 110676 108263 109515 109013 110606
109524 109175 110611 108842 109538 109481 109265 110625 110581 108663
109540 109381 110628 110525 109583 109198 110692 108083 109555 109299
110646 108514 109507 109294 110669 107570 109557 109260 110672 108387
109521 109202 110702 107847 109495 109395 110630 110582 109549 109180
110698 108250 109461 109464 109310 108959 110616 110670 107281 109470
109100 110621 108802 109486 109185 110637 108631 109540 109141 110720
108080 109481 109214 110707 107572 109507 109213 110662 108485 109512
109170 110691 108363 109424 110630 109450 109324 110671 107018 109499
109135 110734 107851 109513 109432 109229 109100 110721 110708 107282
108236 109415 108835 110637 109425 108971 110643 108733 109441 109090
110659 108590 109454 109138 110740 107580 109507 109060 110746 108076
109467 109428 109344 109115 110685 110671 106807 108456 109418 109241
110708 107017 109479 109057 110716 108342 109488 109045 110762 107857
109411 109150 110740 107286 109490 108980 110747 108224 109354 106666
109444 109044 110768 107589 109380 108678 110672 109416 109262 110707
106802 109388 108800 110678 108688 109482 108944 110772 108073 109399
108911 110694 108571 109377 109164 110738 107013 109425 108918 110718
108442 109489 108930 110787 107862 109436 108870 110747 108334 109385
109060 110767 107292 109357 109287 106659 106592 109450 108832 110775
108218 109339 109182 110737 106789 109464 108934 110792 107597 109353
108642 110718 109356 109344 109086 108753 110723 110764 108626 107009
109427 108820 110797 108071 109361 108754 110737 108565 109381 108697
110758 108512 109395 108959 110790 107298 109302 106584 109430 108820
110810 107863 109391 108659 110782 108466 109317 109203 106569 106639
109304 109108 110762 106775 109404 108659 110805 108407 109404 108830
110814 107600 109368 109005 110785 107008 109383 108669 110822 108327
109322 108668 110768 109323 108714 110771 108594 109322 109282 109218
108669 110782 108543 106562 106563 109293 109134 106565 106616 109336
109345 108859 108601 110798 110810 108498 107300 109360 108686 110832
108223 109341 109041 110782 106764 109349 108565 110816 108455 109364
108561 110834 108398 109334 108713 110834 108101 109343 108922 110805
107007 109216 106544 109272 109155 106561 106537 109353 108568 110846
108319 109316 109081 106550 106598 109285 108572 110811 109283 108596
110814 108536 109281 108575 110822 108502 109314 108756 110830 107972
109293 108534 110833 108469 109331 109319 108974 108585 110853 110802
108216 106759 109310 108508 110846 108433 109230 109176 106550 106521
109318 108833 110825 107849 109305 109290 109119 108621 110854 108095
106549 106515 109327 108503 110858 108378 109305 109035 106500 106590
109326 108513 110867 108301 109240 108504 110841 109288 108674 110852
107967 109238 108517 110843 108480 109289 108906 110822 107737 109238
108500 110848 108459 109318 108534 110873 108198 109202 106534 109249
108478 110856 108435 109257 109150 106545 106502 109271 108465 110866
108403 109283 109093 106502 106507 109281 108755 110848 107845 109280
108574 110875 108079 109284 108466 110875 108351 109277 108990 107643
106414 109307 108479 110883 108274 109254 109226 109183 108634 110875
107954 106539 106521 109262 108840 110846 107736 109192 108439 110852
109192 108444 110854 108429 109255 109124 106506 106494 109198 108437
110859 108418 109292 108507 110890 108172 109210 109266 109062 108433
110866 107565 108401 106418 109232 108433 110875 108373 109250 108713
110874 107835 109230 109254 108938 108548 110895 107643 108055 106306
109230 108445 110884 108322 109202 106534 109229 109157 106509 106515
109259 109248 109100 108466 110893 107504 108244 106427 109242 108800
110873 107730 109215 108605 110899 107935 109138 108390 110848 109141
109241 109022 108387 110850 107566 108390 106312 109153 109229 108498
108387 110857 110903 108143 108386 109168 108400 110866 108374 109208
108674 110901 107821 109235 108888 107641 106206 109181 108416 110876
108348 109206 109175 106511 106531 109163 108539 110911 108029 109223
109137 107457 106437 109169 108441 110886 108296 109228 109086 107506
106324 109197 108749 110901 107722 109151 109174 108586 108471 110897
110919 107913 108219 109214 108963 107568 106212 109079 108360 110831
109085 108337 110834 108367 109121 108507 110910 108118 109178 106511
109103 109203 109155 108336 110843 107425 108365 106446 109162 108636
110925 107805 109123 109190 108821 108367 110855 107638 108356 106139
109209 109134 107460 106339 109137 108403 110868 108331 109118 108546
110922 108006 109203 109004 107511 106224 109134 108445 110881 108279
109155 108685 110925 107712 109135 108587 110935 107894 109179 108889
107571 106143 109101 108485 110894 108201 109178 109158 107406 106448
109191 109129 107429 106351 109086 109188 109058 108524 110908 107467
108101 106240 109015 108315 110819 109023 108286 110822 108363 109150
108740 107635 106116 109123 108623 110944 107791 109047 108291 110833
108359 109070 108338 110846 108351 109173 108920 107517 106153 109104
108562 110924 107990 109095 108391 110861 108325 109161 107393 109117
109170 109119 108654 110946 107409 107704 106355 109094 108447 110875
108273 109144 108805 107573 106118 109174 109103 107437 106253 109104
108597 110940 107880 109088 108494 110888 108195 109162 108978 107477
106166 109114 108689 107632 106130 109082 108535 110904 108095 108949
108254 109093 108623 110952 107781 108958 108253 108984 109141 108867
108283 107525 106123 109013 109157 109125 108343 107397 107383 109156
109108 107418 106258 109073 108569 110920 107985 109039 108409 109087
109151 109058 108639 110954 107449 107698 106176 109110 108737 107575
106130 109041 108470 109069 108599 110938 107876 109133 108932 107488
106129 109040 108517 109084 108655 107630 106161 109125 107387 109144
109121 107369 107406 109040 109107 108790 108552 107531 106127 109057
108619 110950 107778 108885 108235 108895 108245 109137 109084 107432
106179 108923 108290 108950 108360 109032 109125 108989 108577 107463
106134 108981 108431 109080 108679 107576 106159 109051 108627 110953
107695 108992 109102 108848 108492 107497 106124 109027 108599 109117
109123 107373 107395 108995 108534 109126 109111 107351 107420 109047
108629 107629 106182 109076 108712 107535 106149 109112 109026 107446
106135 109017 108613 108996 108562 108829 108239 109095 108910 107474
106122 108839 108254 108867 108305 108988 108578 108891 108378 109043
108633 107576 106178 109012 108616 108922 109115 108450 107381 109070
108760 107504 106138 109105 109119 107355 107408 109101 109066 107329
107435 108937 108508 108984 108593 109083 108962 107460 106120 109008
108607 108940 108545 109040 108647 107536 106166 108976 108601 109062
108816 107482 106129 108943 108564 108786 109100 109108 108261 107362
107393 108794 108277 109004 109084 109078 108597 107333 107423 108821
108328 108939 108573 108973 108598 108845 109034 108678 108397 107505
106151 109069 109004 107308 107449 108871 108465 108938 109049 108865
108579 107469 106125 108882 108518 109000 108594 108970 108581 108888
108547 109025 108721 107485 106140 109089 107374 109073 109067 107340
107407 108932 108583 109052 109022 107313 107437 108893 108558 108966
108557 108759 109033 108907 108303 107287 107459 108994 108605 108765
108318 108785 108363 108892 108929 108577 108557 108803 108422 109010
108767 107471 106134 108819 108478 108892 108554 108829 108961 108538
108519 109057 109053 107350 107387 108926 108556 109036 109022 107319
107421 108984 108631 108837 108538 109014 108937 107292 107447 108890
108552 108843 108539 108991 108812 107276 107461 108925 108522 108954
108533 108748 108350 108750 108362 108890 108546 108846 108527 108759
108969 108668 108396 109030 107363 108763 109014 109011 108441 107329
107399 108995 108954 107300 107430 108771 108482 108919 108486 108849
108514 108891 108943 108543 108525 108780 108508 108971 108853 107282
107450 108787 108513 108846 108948 108713 108504 108910 108462 108793
108891 108487 108502 108989 108995 107341 107374 108971 108957 107311
107408 108926 108573 108846 108494 108743 108391 108741 108802 108478
108399 108950 108887 107290 107433 108738 108422 108730 108448 108924
108767 108880 108438 108728 108470 108897 108456 108806 108452 108847
108475 108740 108476 108902 108616 108964 107352 108750 108946 108952
108466 107324 107383 108802 108429 108868 108926 108909 108396 107302
107410 108847 108438 108750 108440 108878 108476 108897 108818 108797
108410 108761 108402 108732 108415 108874 108680 108727 108419 108715
108429 108837 108385 108853 108372 108702 108438 108767 108788 108387
108362 108696 108917 108931 108438 107337 107360 108853 108513 108899
108910 107317 107384 108710 108425 108867 108856 108761 108324 108822
108332 108720 108396 108842 108741 108785 108356 108832 108379 108711
108353 108754 108294 108821 108569 108883 107346 108721 108301 108866
108892 107330 107361 108805 108293 108711 108410 108707 108780 108311
108410 108836 108866 108692 108409 108682 108804 108409 108403 108742
108267 108726 108808 108791 108246 108674 108385 108699 108352 108787
108645 108770 108261 108782 108286 108720 108196 108707 108305 108733
108241 108828 108844 107340 107347 108771 108455 108800 108850 108679
108246 108712 108157 108775 108814 108752 108223 108728 108211 108686
108180 108754 108308 108674 108752 108711 108376 108674 108374 108660
108365 108699 108127 108652 108346 108687 108114 108646 108735 108527
108314 108720 108183 108730 108211 108687 108784 108267 107342 108763
108801 108679 108057 108690 108739 108799 108107 108722 108355 108687
108206 108720 108730 108641 108134 108669 108016 108702 108162 108702
108603 108704 108229 108680 108095 108649 108057 108630 108314 108635
108309 108626 108689 108418 108295 108657 107990 108717 108741 108625
108268 108699 108746 108645 107985 108625 108227 108681 108686 108714
108159 108668 108095 108671 108172 108675 108279 108671 108621 108637
108647 107979 107927 108650 108104 108659 108484 108598 108026 108652
108103 108627 107891 108657 108177 108676 108636 107984 108650 108692
108617 107944 108647 108669 108647 108338 108582 108236 108617 107875
108586 108230 108641 108613 108584 108213 108605 107872 108583 108182
108633 108118 108625 108011 108632 108505 108591 108138 108632 108228
108590 108082 108609 107876 108598 107820 108622 108397 108564 108013
108604 108632 108603 108642 108612 108050 108614 108142 108590 107795
108608 108598 108565 107936 108600 107898 108608 108281 108609 108524
108580 107858 108585 107792 108538 108151 108542 108601 108423 108145
108597 108087 108544 108126 108570 107791 108590 108595 108190 107947
108553 108095 108562 108577 108554 108607 108052 108581 107805 108589
108337 108571 108620 108567 107749 108557 107999 108586 108555 108537
108582 108119 107938 108579 108011 108578 108243 108565 107738 108584
108454 108576 107843 108552 107870 108575 108374 108549 107801 108567
107749 108518 108537 108568 108064 108568 108530 108588 108166 108569
107911 108508 108075 108514 108069 108544 107746 108516 108559 108591
108049 108542 108018 108564 108299 108580 108571 108511 107980 108569
107777 108545 107719 108582 107934 108558 108101 108561 107989 108566
108404 108555 108219 108558 107884 108567 107829 108549 107724 108498
108542 108495 108521 107830 108556 108333 108528 108551 108553 108051
108536 107777 108548 108555 108544 108143 108557 107752 108562 107909
108546 108275 108561 108458 108485 108018 108492 108011 108531 107737
108499 107991 108526 107961 108563 107795 108563 107927 108553 108362
108546 108089 108535 107724 108557 107992 108560 108540 108480 108501
108196 107890 108501 108508 108540 107852 108537 108519 108567 108542
108301 107860 108541 107745 108529 108556 108503 107814 108539 108128
108549 108052 108524 107778 108550 107788 108554 108408 108536 108254
108562 107943 108524 107753 108470 107987 108482 108479 107980 108483
108514 108542 108311 108502 107960 108520 108507 108536 108556 107846
107932 108540 108087 108533 108176 108555 107900 108552 108553 108504
108020 108532 107752 108547 107870 108533 108280 108559 108459 108559
107919 108536 107842 108541 107782 108533 108119 108523 107818 108549
108343 108539 108070 108530 108226 108481 108491 108549 107837 108507
108516 108520 107798 108551 107999 108550 108501 108536 108281 108524
107786 108454 107987 108471 108568 108492 107979 108530 108097 108504
107959 108529 108156 108549 107905 108541 107930 108536 108065 108529
108253 108542 107899 108534 108561 108390 107792 108527 107872 108540
107981 108493 108524 107850 108544 108295 108504 108505 108542 107826
108523 108119 108547 108501 108527 108193 108520 108104 108516 107836
108576 108494 108532 108258 108523 108055 108545 107884 108518 107828
108578 108432 108521 108142 108513 108122 108524 107827 108437 108015
108460 108007 108536 107956 108561 108325 108527 108220 108502 107985
108507 108112 108543 107954 108512 108508 108531 107838 108536 107921
108551 108494 108541 108263 108586 108481 108520 107893 108519 108033
108509 108133 108524 107873 108522 108597 108441 108165 108535 107871
108493 108145 108517 108530 108236 107862 108586 108361 108496 108105
108531 107926 108520 107860 108512 108563 108285 108142 108530 108492
108561 108505 108158 108526 108186 108524 107866 108595 108473 108516
107996 108422 108065 108448 108055 108480 108159 108497 108030 108614
108435 108543 108542 108246 107994 108528 107882 108537 107957 108611
108384 108497 108073 108523 107924 108495 108161 108516 108152 108525
107913 108469 108190 108526 108591 108314 107901 108533 108207 108516
108579 108537 107890 108473 108613 108486 108148 108516 107962 108563
108266 108628 108440 108518 107889 108502 108163 108524 108163 108477
108202 108630 108399 108520 107896 108498 108028 108460 108543 108223
108206 108412 108618 108347 108129 108438 108117 108490 108085 108536
108043 108520 107913 108532 107998 108512 108163 108487 108201 108477
108594 108292 108104 108582 108522 108536 108189 107958 108621 108521
108456 108243 108644 108457 108509 107942 108523 107931 108641 108420
108564 108239 108510 108456 108182 107915 108495 108634 108369 107986
108496 108194 108530 108167 108472 108257 108511 107910 108546 108212
108620 108319 108479 108451 108249 108047 108511 107914 108599 108556
108409 108193 108433 108638 108483 108178 108481 108591 108256 108139
108509 108185 108521 108509 107927 108087 108487 108638 108434 108251
108551 108186 108515 108462 108123 108033 108630 108383 108457 108295
108506 107986 108495 107951 108559 108224 108509 107953 108617 108327
108447 108205 108490 108236 108496 107934 108533 108178 108481 107989
108478 108314 108603 108277 108552 108200 108564 108496 107924 108606
108508 108625 108440 108453 108278 108466 108047 108616 108389 108496
107920 108572 108224 108493 108218 108416 108250 108499 108598 108319
108305 108434 108555 108174 108232 108470 108184 108494 107924 108500
108121 108452 108123 108492 108470 108332 108057 108548 108207 108586
108281 108483 108004 108485 107937 108485 107967 108557 108500 108522
108201 108502 108283 108593 108432 108444 108572 108224 108209 108600
108368 108549 108172 108475 107944 108475 108496 108356 107968 108577
108307 108475 107929 108553 108208 108459 108289 108458 108022 108556
108260 108475 108498 108253 107917 108548 108189 108523 108349 108428
108295 108437 108546 108223 108273 108546 108180 108457 108217 108475
107908 108446 108100 108476 108476 108143 108484 108538 108402 108351
108460 108571 108333 108070 108447 108545 108201 108011 108563 108269
108466 107909 108533 108227 108531 108319 108452 108552 108183 107972
108443 108193 108532 108227 108514 108381 108446 108455 107929 107948
108547 108188 108514 108200 108450 107930 108464 108283 108537 108280
108440 108572 108210 107980 108461 108376 108516 108191 108451 108527
108294 107911 108549 108378 108558 108186 108550 108226 108441 108325
108442 108300 108452 107890 108436 108496 108530 108179 108354 108061
108445 108237 108453 108536 108188 108155 108427 108075 108581 108245
108497 108160 108584 108202 108445 108558 108348 107877 108409 108013
108438 108163 108419 107972 108532 108392 108556 108196 108490 108163
108435 107886 108414 108371 107948 108467 108273 108529 108192 108621
108224 108420 108463 108510 108177 108267 107929 108574 108303 108538
108136 108421 107931 108591 108208 108578 108394 108508 108113 108422
107905 108547 108199 108494 108350 108421 108483 108123 108015 108453
108335 108425 107876 108446 108309 108436 108244 108633 108262 108432
108159 108635 108221 108592 108363 108398 108076 108401 108287 108424
108492 108152 107853 108583 108222 108498 108187 108379 108012 108429
108128 108537 108545 108114 108398 108387 107972 108535 108077 108420
107853 108527 108191 108382 107948 108673 108239 108614 108316 108458
108246 108637 108502 108082 108235 108386 107929 108412 108579 108403
107893 108574 108233 108489 108118 108389 107903 108339 108479 108345
108459 108220 108416 107979 108680 108541 108126 108271 108395 107872
108465 108685 108240 108452 108429 108514 108171 108598 108372 108412
108561 108069 108620 108260 108373 108398 107844 108536 108057 108352
108425 108099 108525 108403 108558 108232 108357 108507 108087 108401
107841 108718 108247 108349 108643 108679 108265 108323 108453 108229
108508 108145 108350 108561 108605 108420 108291 108282 108414 108401
108525 108175 107879 108574 108095 108354 108567 108060 108541 108218
108463 108340 108724 108255 108713 108275 108409 107965 108361 108651
108304 108474 108592 108383 108454 108532 108072 108419 108389 108347
108582 108291 108370 108510 108122 108414 108509 108408 108088 108326
108385 108743 108252 108327 108502 108256 108706 108293 108380 108668