#           y             T         TMean   TPrime2Mean           U_x           U_y           U_z       UMean_x       UMean_y       UMean_z UPrime2Mea... UPrime2Mea... UPrime2Mea... UPrime2Mea... UPrime2Mea... UPrime2Mea...            O2           H2O          C3H8             p         pMean   pPrime2Mean           CO2
         0.03       1897.37       364.739        113266       73.8194       0.96912             0       6.54674        1.3677             0         142.2       4.44964             0       51.0781             0             0   2.84219e-09     0.0923852     0.0516486        110752        103385   1.61932e+06      0.169267
    0.0301702        1897.2       364.583        113069       73.8248       1.31736             0       6.51822       1.41835             0       142.447       5.14387             0       51.1034             0             0   2.77597e-09     0.0923976     0.0515205        110755        103386   1.61928e+06       0.16929
    0.0303403       1897.02       364.427        112872       73.8302        1.6656             0       6.48969         1.469             0       142.695       5.83811             0       51.1287             0             0   2.70974e-09     0.0924101     0.0513924        110757        103386   1.61924e+06      0.169313
    0.0305105       1896.84        364.27        112675       73.8355       2.01383             0       6.46117       1.51964             0       142.942       6.53234             0        51.154             0             0   2.64352e-09     0.0924226     0.0512644        110760        103386   1.61921e+06      0.169335
    0.0306807       1896.66       364.114        112478       73.8409       2.36207             0       6.43265       1.57029             0        143.19       7.22658             0       51.1793             0             0    2.5773e-09     0.0924351     0.0511363        110762        103387   1.61917e+06      0.169358
    0.0308509       1896.48       363.957        112281       73.8463       2.71031             0       6.40412       1.62094             0       143.437       7.92081             0       51.2047             0             0   2.51108e-09     0.0924476     0.0510082        110765        103387   1.61913e+06      0.169381
     0.031021       1896.31       363.799        112081       73.8398       3.05051             0       6.37646       1.67163             0       143.597       8.59234             0        51.219             0             0   2.44557e-09      0.092462     0.0508596        110768        103387   1.61912e+06      0.169408
    0.0311912       1896.17       363.626        111855       73.7494       3.33373             0       6.35486       1.72257             0       143.139       9.10272             0       51.1558             0             0   2.38512e-09     0.0924908     0.0505648        110772        103388   1.61931e+06       0.16946
    0.0313614       1896.04       363.452        111630       73.6589       3.61694             0       6.33326       1.77351             0        142.68        9.6131             0       51.0926             0             0   2.32467e-09     0.0925195       0.05027        110775        103388   1.61949e+06      0.169513
    0.0315315        1895.9       363.279        111404       73.5685       3.90016             0       6.31166       1.82445             0       142.222       10.1235             0       51.0294             0             0   2.26423e-09     0.0925482     0.0499752        110779        103389   1.61967e+06      0.169566
    0.0317017       1895.77       363.106        111179       73.4781       4.18337             0       6.29006       1.87539             0       141.763       10.6339             0       50.9662             0             0   2.20378e-09     0.0925769     0.0496805        110783        103389   1.61986e+06      0.169618
    0.0318719       1895.63       362.932        110954       73.3877       4.46659             0       6.26846       1.92632             0       141.305       11.1442             0        50.903             0             0   2.14333e-09     0.0926056     0.0493857        110787        103390   1.62004e+06      0.169671
     0.032042        1895.5       362.754        110720        73.243       4.74722             0       6.24821       1.97692             0       140.696       11.6301             0       50.8176             0             0   2.07821e-09      0.092638     0.0490531        110791        103391   1.62027e+06       0.16973
    0.0322122       1895.36       362.562        110463       72.9332       5.01997             0        6.2321       2.02647             0        139.63       12.0412             0       50.6648             0             0   1.99887e-09     0.0926817      0.048605        110796        103391   1.62066e+06       0.16981
    0.0323824       1895.22       362.371        110205       72.6235       5.29272             0       6.21599       2.07601             0       138.564       12.4523             0        50.512             0             0   1.91952e-09     0.0927253      0.048157        110801        103392   1.62105e+06       0.16989
    0.0325526       1895.08       362.179        109948       72.3137       5.56548             0       6.19988       2.12556             0       137.499       12.8635             0       50.3592             0             0   1.84018e-09      0.092769     0.0477089        110807        103392   1.62143e+06       0.16997
    0.0327227       1894.94       361.987        109690       72.0039       5.83823             0       6.18376       2.17511             0       136.433       13.2746             0       50.2064             0             0   1.76083e-09     0.0928126     0.0472609        110812        103393   1.62182e+06       0.17005
    0.0328929       1894.81       361.795        109433       71.6941       6.11098             0       6.16765       2.22466             0       135.367       13.6857             0       50.0535             0             0   1.68148e-09     0.0928563     0.0468129        110817        103394   1.62221e+06       0.17013
    0.0330631       1894.58       361.594        109159        71.364       6.34869             0       6.15287        2.2727             0       134.282       14.0481             0       49.8692             0             0   1.61021e-09     0.0929043     0.0463205        110823        103394   1.62266e+06      0.170218
    0.0332332       1894.21       361.378        108857       70.9994       6.52689             0       6.14034        2.3182             0       133.164       14.3275             0       49.6312             0             0   1.55264e-09     0.0929596     0.0457527        110830        103395   1.62324e+06      0.170319
    0.0334034       1893.84       361.163        108555       70.6349       6.70509             0       6.12781        2.3637             0       132.046        14.607             0       49.3932             0             0   1.49507e-09     0.0930149     0.0451849        110837        103396   1.62381e+06      0.170421
    0.0335736       1893.48       360.947        108252       70.2703       6.88328             0       6.11528        2.4092             0       130.929       14.8864             0       49.1552             0             0    1.4375e-09     0.0930702     0.0446172        110844        103397   1.62438e+06      0.170522
    0.0337437       1893.11       360.731        107950       69.9057       7.06148             0       6.10275        2.4547             0       129.811       15.1659             0       48.9172             0             0   1.37993e-09     0.0931255     0.0440494        110851        103397   1.62496e+06      0.170623
    0.0339139       1892.74       360.515        107648       69.5412       7.23968             0       6.09022        2.5002             0       128.693       15.4453             0       48.6793             0             0   1.32236e-09     0.0931808     0.0434816        110858        103398   1.62553e+06      0.170725
    0.0340841       1892.35       360.288        107325       69.1351       7.38767             0       6.07864       2.54288             0       127.598       15.6794             0       48.3978             0             0   1.25384e-09     0.0932485      0.042787        110865        103399   1.62615e+06      0.170849
    0.0342543       1891.96       360.049        106981       68.6867       7.50475             0       6.06801       2.58266             0       126.525        15.867             0       48.0719             0             0   1.17409e-09     0.0933288     0.0419626        110873        103400   1.62682e+06      0.170996
    0.0344244       1891.56        359.81        106637       68.2382       7.62183             0       6.05739       2.62244             0       125.452       16.0547             0       47.7459             0             0   1.09434e-09     0.0934092     0.0411382        110881        103401   1.62749e+06      0.171143
    0.0345946       1891.17       359.571        106292       67.7897       7.73891             0       6.04676       2.66221             0        124.38       16.2423             0         47.42             0             0   1.01459e-09     0.0934895     0.0403137        110888        103402   1.62816e+06       0.17129
    0.0347648       1890.77       359.332        105948       67.3412       7.85599             0       6.03613       2.70199             0       123.307       16.4299             0        47.094             0             0   9.34836e-10     0.0935698     0.0394893        110896        103403   1.62883e+06      0.171437
    0.0349349       1890.38       359.093        105603       66.8927       7.97307             0       6.02551       2.74177             0       122.234       16.6176             0       46.7681             0             0   8.55087e-10     0.0936501     0.0386648        110904        103404    1.6295e+06      0.171584
    0.0351051       1890.24       358.844        105240       66.4504       8.04041             0       6.01722        2.7768             0       121.228       16.7253             0       46.3868             0             0   7.83889e-10     0.0937514     0.0376258        110912        103405   1.63021e+06       0.17177
    0.0352753       1890.25       358.588        104864       66.0119       8.07698             0       6.01039       2.80889             0       120.264       16.7837             0       45.9713             0             0   7.17984e-10     0.0938655     0.0364538        110920        103406   1.63095e+06      0.171979
    0.0354454       1890.27       358.332        104488       65.5734       8.11354             0       6.00355       2.84099             0       119.299        16.842             0       45.5558             0             0    6.5208e-10     0.0939797     0.0352819        110928        103407   1.63169e+06      0.172188
    0.0356156       1890.29       358.077        104112       65.1349        8.1501             0       5.99671       2.87308             0       118.335       16.9003             0       45.1403             0             0   5.86176e-10     0.0940939     0.0341099        110936        103408   1.63243e+06      0.172398
    0.0357858        1890.3       357.821        103737       64.6964       8.18666             0       5.98987       2.90517             0        117.37       16.9586             0       44.7248             0             0   5.20272e-10     0.0942081      0.032938        110944        103409   1.63318e+06      0.172607
     0.035956       1890.32       357.565        103361       64.2579       8.22322             0       5.98303       2.93726             0       116.406       17.0169             0       44.3093             0             0   4.54368e-10     0.0943222      0.031766        110952        103410   1.63392e+06      0.172816
    0.0361261        1890.4       357.292        102953       63.8112       8.22514             0       5.97972       2.96338             0       115.494       16.9874             0       43.8476             0             0   4.26594e-10     0.0944387     0.0305704        110960        103411   1.63466e+06      0.173029
    0.0362963        1890.5       357.013        102533       63.3616       8.21496             0       5.97763       2.98742             0       114.601       16.9272             0       43.3699             0             0   4.12135e-10      0.094556     0.0293665        110967        103412   1.63541e+06      0.173244
    0.0364665       1890.61       356.734        102114       62.9119       8.20478             0       5.97554       3.01146             0       113.707        16.867             0       42.8921             0             0   3.97677e-10     0.0946733     0.0281626        110974        103413   1.63616e+06      0.173459
    0.0366366       1890.71       356.455        101695       62.4623        8.1946             0       5.97345        3.0355             0       112.814       16.8068             0       42.4143             0             0   3.83218e-10     0.0947906     0.0269586        110981        103414    1.6369e+06      0.173674
    0.0368068       1890.81       356.176        101275       62.0127       8.18443             0       5.97137       3.05954             0       111.921       16.7466             0       41.9365             0             0   3.68759e-10     0.0949079     0.0257547        110988        103416   1.63765e+06      0.173889
     0.036977       1890.92       355.897        100856       61.5631       8.17425             0       5.96928       3.08358             0       111.027       16.6864             0       41.4587             0             0   3.54301e-10     0.0950251     0.0245508        110995        103417   1.63839e+06      0.174104
    0.0371471          1891       355.564        100335       61.1213       8.12602             0       5.97192       3.09872             0       110.167       16.5372             0       40.9282             0             0   3.34651e-10     0.0951442     0.0233284        111001        103418   1.63918e+06      0.174322
    0.0373173       1891.07       355.223       99798.4       60.6808       8.07184             0       5.97529       3.11246             0       109.313       16.3741             0       40.3895             0             0    3.1419e-10     0.0952636     0.0221031        111006        103419   1.63997e+06      0.174541
    0.0374875       1891.15       354.881       99261.8       60.2402       8.01766             0       5.97867       3.12621             0       108.458        16.211             0       39.8508             0             0   2.93729e-10      0.095383     0.0208778        111012        103420   1.64076e+06      0.174759
    0.0376577       1891.23        354.54       98725.2       59.7997       7.96348             0       5.98205       3.13995             0       107.604       16.0479             0       39.3121             0             0   2.73268e-10     0.0955023     0.0196525        111017        103422   1.64156e+06      0.174978
    0.0378278        1891.3       354.199       98188.6       59.3592        7.9093             0       5.98542        3.1537             0       106.749       15.8848             0       38.7734             0             0   2.52807e-10     0.0956217     0.0184272        111023        103423   1.64235e+06      0.175197
     0.037998       1891.38       353.857         97652       58.9186       7.85512             0        5.9888       3.16744             0       105.895       15.7217             0       38.2347             0             0   2.32346e-10     0.0957411     0.0172019        111028        103424   1.64314e+06      0.175415
    0.0381682        1891.7       353.417       96932.9       58.4777       7.78744             0       5.99757       3.16896             0       104.946       15.5463             0       37.6376             0             0   2.39092e-10     0.0958571     0.0160105        111033        103426   1.64398e+06      0.175628
    0.0383383       1892.03       352.974       96211.7       58.0368       7.71959             0        6.0064       3.17033             0       103.997       15.3708             0       37.0399             0             0   2.46162e-10     0.0959731     0.0148195        111037        103427   1.64482e+06      0.175841
    0.0385085       1892.35       352.532       95490.4        57.596       7.65174             0       6.01523        3.1717             0       103.047       15.1954             0       36.4422             0             0   2.53232e-10     0.0960892     0.0136285        111041        103428   1.64566e+06      0.176053
    0.0386787       1892.67        352.09       94769.2       57.1551        7.5839             0       6.02406       3.17307             0       102.098       15.0199             0       35.8445             0             0   2.60302e-10     0.0962052     0.0124374        111046        103430    1.6465e+06      0.176266
    0.0388488          1893       351.648       94047.9       56.7142       7.51605             0       6.03289       3.17444             0       101.148       14.8444             0       35.2468             0             0   2.67372e-10     0.0963212     0.0112464        111050        103431   1.64734e+06      0.176478
     0.039019       1893.35       351.196       93309.4       56.2723       7.44594             0       6.04227       3.17434             0       100.192       14.6739             0       34.6419             0             0   1.03158e-09     0.0964339     0.0100896        111054        103432   1.64819e+06      0.176685
    0.0391892       1893.88       350.666         92434        55.823       7.35788             0       6.05601       3.16256             0       99.1826       14.5433             0       33.9795             0             0   7.81305e-09     0.0965201    0.00920422        111059        103434   1.64909e+06      0.176843
    0.0393594       1894.42       350.135       91558.5       55.3736       7.26981             0       6.06974       3.15077             0       98.1734       14.4126             0       33.3172             0             0   1.45945e-08     0.0966064    0.00831885        111063        103435   1.64999e+06      0.177001
    0.0395295       1894.96       349.604         90683       54.9242       7.18175             0       6.08347       3.13898             0       97.1642        14.282             0       32.6549             0             0    2.1376e-08     0.0966926    0.00743348        111067        103436   1.65089e+06      0.177159
    0.0396997        1895.5       349.074       89807.5       54.4748       7.09368             0       6.09721        3.1272             0       96.1549       14.1514             0       31.9926             0             0   2.81575e-08     0.0967789     0.0065481        111071        103438   1.65179e+06      0.177317
    0.0398699       1896.03       348.543         88932       54.0254       7.00561             0       6.11094       3.11541             0       95.1457       14.0208             0       31.3303             0             0   3.49389e-08     0.0968651    0.00566273        111075        103439   1.65269e+06      0.177475
      0.04004       1896.55       348.006       88050.7       53.5627       6.91895             0       6.12559       3.10115             0       94.1492        13.899             0       30.6574             0             0    6.4982e-07      0.096944    0.00485021        111079        103440   1.65359e+06      0.177619
    0.0402102       1896.99       347.449       87150.2       53.0566       6.83683             0        6.1432       3.07883             0       93.1944       13.8062             0         29.95             0             0   3.24102e-06      0.096999    0.00427445        111084        103442   1.65449e+06       0.17772
    0.0403804       1897.44       346.893       86249.8       52.5505       6.75471             0       6.16081       3.05652             0       92.2396       13.7134             0       29.2425             0             0   5.83223e-06      0.097054    0.00369869        111089        103443   1.65538e+06      0.177821
    0.0405506       1897.88       346.336       85349.4       52.0444        6.6726             0       6.17841        3.0342             0       91.2848       13.6206             0       28.5351             0             0   8.42343e-06     0.0971089    0.00312294        111094        103445   1.65628e+06      0.177922
    0.0407207       1898.33       345.779       84448.9       51.5382       6.59048             0       6.19602       3.01189             0       90.3299       13.5277             0       27.8276             0             0   1.10146e-05     0.0971639    0.00254718        111099        103446   1.65717e+06      0.178022
    0.0408909       1898.77       345.222       83548.5       51.0321       6.50836             0       6.21363       2.98958             0       89.3751       13.4349             0       27.1202             0             0   1.36058e-05     0.0972189    0.00197142        111103        103447   1.65807e+06      0.178123
    0.0410611       1899.11       344.638       82601.3       50.5203       6.42859             0       6.23197       2.96467             0       88.4729       13.3291             0       26.4109             0             0   2.04051e-05     0.0972597    0.00152267        111109        103449   1.65892e+06      0.178198
    0.0412312       1899.26       344.005       81570.4       49.9985         6.353             0       6.25163       2.93511             0       87.6649       13.1999             0       25.6984             0             0   3.47235e-05     0.0972753    0.00130087        111115        103450    1.6597e+06      0.178226
    0.0414014       1899.41       343.372       80539.5       49.4767       6.27742             0       6.27128       2.90556             0       86.8568       13.0708             0       24.9858             0             0    4.9042e-05     0.0972908    0.00107907        111121        103452   1.66047e+06      0.178255
    0.0415716       1899.55       342.739       79508.7       48.9548       6.20183             0       6.29094         2.876             0       86.0487       12.9417             0       24.2733             0             0   6.33604e-05     0.0973064   0.000857266        111127        103453   1.66125e+06      0.178283
    0.0417417        1899.7       342.106       78477.8        48.433       6.12625             0        6.3106       2.84645             0       85.2407       12.8125             0       23.5607             0             0   7.76789e-05     0.0973219   0.000635464        111133        103455   1.66202e+06      0.178312
    0.0419119       1899.85       341.473       77446.9       47.9111       6.05066             0       6.33025        2.8169             0       84.4326       12.6834             0       22.8482             0             0   9.19973e-05     0.0973374   0.000413663        111139        103456    1.6628e+06       0.17834
    0.0420821       1899.93       340.765       76297.5       47.3781       5.96852             0        6.3488       2.78502             0       83.7433       12.5152             0       22.1438             0             0   9.82764e-05     0.0973451   0.000308138        111146        103457   1.66355e+06      0.178354
    0.0422523       1899.95       339.976       75020.7        46.833       5.87936             0       6.36616       2.75065             0       83.1816        12.305             0        21.448             0             0   9.59278e-05     0.0973442   0.000327398        111152        103459   1.66429e+06      0.178353
    0.0424224       1899.96       339.187         73744        46.288       5.79019             0       6.38352       2.71628             0       82.6199       12.0948             0       20.7523             0             0   9.35793e-05     0.0973433   0.000346657        111159        103460   1.66503e+06      0.178351
    0.0425926       1899.97       338.398       72467.2        45.743       5.70103             0       6.40088       2.68191             0       82.0582       11.8846             0       20.0565             0             0   9.12307e-05     0.0973424   0.000365916        111166        103462   1.66576e+06      0.178349
    0.0427628       1899.98       337.609       71190.5       45.1979       5.61186             0       6.41824       2.64754             0       81.4965       11.6744             0       19.3608             0             0   8.88822e-05     0.0973415   0.000385176        111172        103463    1.6665e+06      0.178348
    0.0429329          1900        336.82       69913.7       44.6529       5.52269             0        6.4356       2.61317             0       80.9348       11.4642             0        18.665             0             0   8.65336e-05     0.0973406   0.000404435        111179        103465   1.66723e+06      0.178346
    0.0431031          1900       336.001       68637.6       44.1746       5.43247             0       6.44933       2.57475             0         80.54       11.1676             0       18.0003             0             0     7.693e-05     0.0973309   0.000546573        111185        103466   1.66796e+06      0.178328
    0.0432733          1900       335.161       67361.7       43.7396       5.34156             0       6.46071       2.53369             0       80.2538        10.815             0       17.3558             0             0   6.26072e-05     0.0973153   0.000768642        111190        103467   1.66869e+06        0.1783
    0.0434434          1900       334.322       66085.9       43.3047       5.25064             0       6.47209       2.49263             0       79.9676       10.4623             0       16.7114             0             0   4.82843e-05     0.0972997   0.000990711        111195        103469   1.66941e+06      0.178271
    0.0436136          1900       333.482       64810.1       42.8698       5.15973             0       6.48347       2.45157             0       79.6814       10.1096             0       16.0669             0             0   3.39614e-05     0.0972842    0.00121278        111200        103470   1.67013e+06      0.178243
    0.0437838          1900       332.643       63534.3       42.4348       5.06882             0       6.49485       2.41051             0       79.3952       9.75698             0       15.4224             0             0   1.96386e-05     0.0972686    0.00143485        111205        103471   1.67086e+06      0.178214
     0.043954          1900       331.803       62258.5       41.9999        4.9779             0       6.50623       2.36945             0        79.109       9.40431             0       14.7779             0             0   5.31572e-06      0.097253    0.00165692        111211        103473   1.67158e+06      0.178186
    0.0441241          1900       330.982       61053.9       41.7445       4.86666             0       6.51118       2.32231             0       78.8159       8.98566             0        14.168             0             0   1.26312e-06     0.0971864     0.0023588        111214        103474   1.67234e+06      0.178064
    0.0442943       1899.99       330.168       59875.8       41.5557       4.74787             0       6.51374        2.2729             0       78.5203       8.54254             0       13.5708             0             0   1.02045e-06     0.0971007    0.00323868        111216        103476   1.67311e+06      0.177907
    0.0444645       1899.99       329.353       58697.7       41.3669       4.62908             0       6.51631        2.2235             0       78.2246       8.09942             0       12.9737             0             0   7.77789e-07     0.0970151    0.00411855        111219        103477   1.67388e+06       0.17775
    0.0446346       1899.99       328.539       57519.6       41.1781       4.51029             0       6.51887       2.17409             0        77.929        7.6563             0       12.3765             0             0   5.35126e-07     0.0969295    0.00499843        111222        103478   1.67465e+06      0.177593
    0.0448048       1899.99       327.724       56341.4       40.9893        4.3915             0       6.52144       2.12469             0       77.6334       7.21318             0       11.7794             0             0   2.92462e-07     0.0968439    0.00587831        111224        103479   1.67543e+06      0.177436
     0.044975       1899.99       326.909       55163.3       40.8006       4.27271             0         6.524       2.07529             0       77.3377       6.77006             0       11.1822             0             0   4.97985e-08     0.0967582    0.00675818        111227        103481    1.6762e+06      0.177279
    0.0451451       1899.98       326.024       53850.1       40.9657       4.01029             0       6.51283       2.01555             0       76.5952       6.28433             0       10.6817             0             0   1.34212e-08     0.0965756    0.00863323        111227        103482   1.67682e+06      0.176944
    0.0453153       1899.98       325.127       52513.5       41.1918       3.72311             0       6.49929       1.95403             0       75.7757       5.79124             0       10.1979             0             0   1.26105e-08     0.0963762     0.0106799        111227        103483   1.67741e+06      0.176579
    0.0454855       1899.98        324.23         51177        41.418       3.43593             0       6.48574       1.89251             0       74.9562       5.29815             0       9.71401             0             0   1.17998e-08     0.0961768     0.0127265        111227        103484     1.678e+06      0.176214