#           y             T         TMean   TPrime2Mean           U_x           U_y           U_z       UMean_x       UMean_y       UMean_z UPrime2Mea... UPrime2Mea... UPrime2Mea... UPrime2Mea... UPrime2Mea... UPrime2Mea...            O2           H2O          C3H8             p         pMean   pPrime2Mean           CO2
         0.02       1082.26       353.218       52149.6       23.8507       2.14422             0       21.7696     -0.276033             0        38.082      -2.90211             0       23.4756             0             0     0.0111296     0.0407543      0.533261        111740        103407   1.92589e+06     0.0746694
    0.0201677       1038.01       351.198       49870.4       22.9952       2.11864             0       21.7784     -0.260541             0       37.9477      -2.31962             0       23.8299             0             0     0.0181479     0.0386569      0.524277        111742        103407   1.92734e+06     0.0708267
    0.0203353       993.762       349.179       47591.3       22.1397       2.09307             0       21.7873     -0.245048             0       37.8133      -1.73713             0       24.1843             0             0     0.0251662     0.0365596      0.515293        111744        103407   1.92879e+06      0.066984
     0.020503       949.512       347.159       45312.1       21.2842        2.0675             0       21.7961     -0.229555             0        37.679      -1.15464             0       24.5386             0             0     0.0321844     0.0344623      0.506309        111747        103406   1.93023e+06     0.0631413
    0.0206707       905.262       345.139         43033       20.4288       2.04192             0        21.805     -0.214062             0       37.5447     -0.572149             0        24.893             0             0     0.0392027     0.0323649      0.497325        111749        103406   1.93168e+06     0.0592986
    0.0208383       861.013        343.12       40753.8       19.5733       2.01635             0       21.8138      -0.19857             0       37.4103     0.0103402             0       25.2473             0             0      0.046221     0.0302676      0.488341        111752        103406   1.93313e+06     0.0554559
     0.021006       816.549       341.115         38497       18.7291       1.98655             0       21.8175     -0.182662             0       37.2817       0.60119             0       25.6035             0             0     0.0533625     0.0281399      0.479133        111754        103405   1.93458e+06     0.0515576
    0.0211737        766.32       339.517       36840.1       18.1886       1.84302             0       21.6804     -0.155597             0       37.3074       1.41707             0       26.0095             0             0      0.063819     0.0251952      0.463897        111752        103405   1.93606e+06     0.0461624
    0.0213413       716.092       337.919       35183.2       17.6482        1.6995             0       21.5434     -0.128532             0        37.333       2.23296             0       26.4156             0             0     0.0742756     0.0222505      0.448662        111751        103404   1.93755e+06     0.0407671
     0.021509       665.863       336.322       33526.3       17.1077       1.55597             0       21.4064     -0.101467             0       37.3586       3.04884             0       26.8216             0             0     0.0847321     0.0193058      0.433427        111749        103404   1.93904e+06     0.0353719
    0.0216767       615.634       334.724       31869.4       16.5673       1.41245             0       21.2693    -0.0744014             0       37.3843       3.86472             0       27.2277             0             0     0.0951887     0.0163612      0.418192        111748        103403   1.94052e+06     0.0299767
    0.0218443       565.405       333.126       30212.5       16.0269       1.26892             0       21.1323    -0.0473362             0       37.4099        4.6806             0       27.6337             0             0      0.105645     0.0134165      0.402956        111746        103403   1.94201e+06     0.0245815
     0.022012       517.118       331.547       28583.2       15.5238       1.12985             0       20.9847    -0.0212522             0       37.4301       5.49814             0       28.0437             0             0      0.115833     0.0105847      0.387729        111744        103403    1.9435e+06     0.0193932
    0.0221797       493.992       330.215       27311.3       15.5046       1.04848             0       20.7003   -0.00788449             0         37.38       6.33706             0       28.5055             0             0      0.122542    0.00921642      0.372607        111736        103402   1.94504e+06     0.0168862
    0.0223473       470.866       328.883       26039.5       15.4854       0.96711             0        20.416    0.00548323             0       37.3298       7.17599             0       28.9673             0             0       0.12925    0.00784814      0.357485        111729        103402   1.94658e+06     0.0143792
     0.022515        447.74       327.551       24767.6       15.4663       0.88574             0       20.1316      0.018851             0       37.2797       8.01492             0       29.4291             0             0      0.135959    0.00647985      0.342362        111721        103401   1.94812e+06     0.0118723
    0.0226827       424.613       326.219       23495.7       15.4471       0.80437             0       19.8472     0.0322187             0       37.2296       8.85385             0       29.8909             0             0      0.142667    0.00511156       0.32724        111714        103401   1.94967e+06    0.00936534
    0.0228504       401.487       324.887       22223.9       15.4279         0.723             0       19.5628     0.0455864             0       37.1795       9.69277             0       30.3527             0             0      0.149376    0.00374328      0.312118        111706        103401   1.95121e+06    0.00685838
     0.023018       380.245       323.576       20979.6       15.4216      0.657252             0       19.2669     0.0558584             0       37.1054       10.5116             0       30.8365             0             0      0.155707    0.00248642      0.297493        111699        103400   1.95275e+06    0.00455559
    0.0231857       374.651       322.442       19964.2       15.5224      0.721257             0        18.875     0.0404192             0       36.8322       11.1639             0       31.5037             0             0      0.158902    0.00215507      0.287001        111694        103400   1.95431e+06    0.00394849
    0.0233534       369.057       321.308       18948.8       15.6231      0.785262             0       18.4832     0.0249799             0        36.559       11.8162             0       32.1708             0             0      0.162098    0.00182372      0.276509        111689        103399   1.95587e+06    0.00334139
     0.023521       363.462       320.174       17933.4       15.7239      0.849267             0       18.0914    0.00954062             0       36.2858       12.4685             0       32.8379             0             0      0.165293    0.00149237      0.266017        111684        103399   1.95743e+06    0.00273429
    0.0236887       357.868        319.04         16918       15.8246      0.913272             0       17.6995   -0.00589866             0       36.0126       13.1207             0       33.5051             0             0      0.168488    0.00116101      0.255524        111679        103399   1.95899e+06    0.00212719
    0.0238564       352.274       317.906       15902.6       15.9253      0.977277             0       17.3077    -0.0213379             0       35.7394        13.773             0       34.1722             0             0      0.171684    0.00082966      0.245032        111674        103398   1.96055e+06    0.00152009
     0.024024       347.261        316.79       14914.4       16.0313       1.06203             0       16.9157    -0.0420119             0       35.4973       14.3819             0       34.8777             0             0      0.174738   0.000535741       0.23477        111670        103398   1.96212e+06   0.000981578
    0.0241917       345.723       315.787       14089.2       16.1682       1.27087             0        16.523    -0.0939852             0       35.4414       14.7315             0       35.8123             0             0      0.176947   0.000465651      0.225884        111672        103398   1.96369e+06   0.000853159
    0.0243594       344.185       314.783         13264       16.3052       1.47971             0       16.1302     -0.145958             0       35.3855       15.0811             0        36.747             0             0      0.179156    0.00039556      0.216999        111675        103397   1.96526e+06    0.00072474
     0.024527       342.647       313.779       12438.8       16.4421       1.68855             0       15.7375     -0.197932             0       35.3295       15.4307             0       37.6816             0             0      0.181366    0.00032547      0.208113        111678        103397   1.96683e+06   0.000596321
    0.0246947        341.11       312.775       11613.6        16.579       1.89739             0       15.3447     -0.249905             0       35.2736       15.7803             0       38.6162             0             0      0.183575   0.000255379      0.199227        111681        103396    1.9684e+06   0.000467902
    0.0248624       339.572       311.771       10788.4        16.716       2.10623             0        14.952     -0.301878             0       35.2177       16.1299             0       39.5509             0             0      0.185784   0.000185289      0.190342        111683        103396   1.96997e+06   0.000339483
      0.02503        338.07        310.79       9998.47        16.883       2.34136             0       14.5749     -0.359194             0       35.1558        16.446             0       40.5396             0             0      0.187919   0.000125015      0.181678        111687        103395   1.97157e+06    0.00022905
    0.0251977       336.733       309.914       9370.19       17.1877       2.69699             0       14.2694     -0.440993             0       35.0664       16.6088             0       41.7761             0             0      0.189713   0.000109734      0.174035        111697        103395   1.97333e+06   0.000201053
    0.0253654       335.396       309.037       8741.91       17.4924       3.05263             0       13.9639     -0.522793             0        34.977       16.7717             0       43.0126             0             0      0.191507   9.44535e-05      0.166391        111706        103394   1.97509e+06   0.000173056
     0.025533       334.059       308.161       8113.63       17.7972       3.40826             0       13.6585     -0.604593             0       34.8876       16.9345             0       44.2491             0             0      0.193301   7.91729e-05      0.158748        111716        103393   1.97685e+06   0.000145059
    0.0257007       332.721       307.284       7485.35       18.1019       3.76389             0        13.353     -0.686393             0       34.7982       17.0974             0       45.4857             0             0      0.195095   6.38922e-05      0.151104        111725        103392   1.97861e+06   0.000117062
    0.0258684       331.384       306.408       6857.07       18.4067       4.11952             0       13.0476     -0.768192             0       34.7088       17.2602             0       46.7222             0             0      0.196889   4.86116e-05      0.143461        111735        103391   1.98036e+06   8.90654e-05
     0.026036       330.024       305.568       6273.99       18.7267       4.50307             0       12.7541      -0.85311             0       34.5294       17.4018             0       48.0191             0             0      0.198627   3.57575e-05      0.136036        111744        103390   1.98215e+06   6.55144e-05
    0.0262037       328.578       304.862       5856.04       19.1025       4.98857             0       12.5045     -0.949417             0       34.0213       17.4657             0       49.5368             0             0       0.20016   3.17672e-05      0.129412        111752        103389   1.98403e+06   5.82035e-05
    0.0263714       327.132       304.156       5438.08       19.4783       5.47407             0        12.255      -1.04572             0       33.5133       17.5296             0       51.0544             0             0      0.201693   2.77769e-05      0.122787        111761        103388   1.98591e+06   5.08925e-05
     0.026539       325.686        303.45       5020.12       19.8542       5.95957             0       12.0054      -1.14203             0       33.0052       17.5934             0       52.5721             0             0      0.203226   2.37866e-05      0.116162        111769        103387   1.98779e+06   4.35816e-05
    0.0267067        324.24       302.744       4602.16         20.23       6.44508             0       11.7558      -1.23834             0       32.4971       17.6573             0       54.0898             0             0       0.20476   1.97964e-05      0.109538        111778        103386   1.98967e+06   3.62706e-05
    0.0268744       322.794       302.038        4184.2       20.6058       6.93058             0       11.5062      -1.33464             0       31.9891       17.7212             0       55.6074             0             0      0.206293   1.58061e-05      0.102913        111786        103385   1.99155e+06   2.89597e-05
     0.027042       321.466       301.382       3810.93       20.9305       7.43249             0       11.2514      -1.43144             0       31.4757       17.7688             0        57.189             0             0      0.207713   1.25059e-05     0.0967706        111792        103384    1.9934e+06   2.29132e-05
    0.0272097       320.492       300.877       3571.18       21.1026       7.98341             0       10.9806      -1.52968             0       30.9464        17.768             0       58.9618             0             0      0.208797   1.12679e-05     0.0920693        111794        103382   1.99519e+06   2.06449e-05
    0.0273774       319.517       300.371       3331.42       21.2747       8.53434             0       10.7098      -1.62792             0       30.4172       17.7672             0       60.7345             0             0      0.209882   1.00299e-05      0.087368        111795        103381   1.99697e+06   1.83767e-05
     0.027545       318.543       299.866       3091.67       21.4468       9.08527             0        10.439      -1.72616             0       29.8879       17.7663             0       62.5072             0             0      0.210966    8.7919e-06     0.0826667        111796        103379   1.99876e+06   1.61084e-05
    0.0277127       317.568        299.36       2851.92       21.6189       9.63619             0       10.1683       -1.8244             0       29.3587       17.7655             0       64.2799             0             0       0.21205    7.5539e-06     0.0779654        111797        103378   2.00055e+06   1.38401e-05
    0.0278804       316.594       298.854       2612.17        21.791       10.1871             0       9.89749      -1.92264             0       28.8294       17.7647             0       66.0527             0             0      0.213134   6.31589e-06     0.0732641        111798        103377   2.00233e+06   1.15719e-05
     0.028048       315.785       298.388       2400.19       21.8786       10.7187             0       9.62326      -2.02213             0       28.3369       17.7559             0       67.8609             0             0      0.214045   5.34038e-06     0.0693158        111797        103375   2.00401e+06   9.78457e-06
    0.0282157        315.39        298.02       2257.36       21.7562       11.2019             0       9.34042      -2.12473             0       27.9358       17.7272             0       69.7578             0             0      0.214522   5.01836e-06     0.0672421        111790        103374   2.00542e+06   9.19458e-06
    0.0283834       314.996       297.651       2114.53       21.6337       11.6851             0       9.05757      -2.22734             0       27.5347       17.6986             0       71.6546             0             0         0.215   4.69635e-06     0.0651685        111782        103372   2.00684e+06   8.60458e-06
    0.0285511       314.601       297.283        1971.7       21.5112       12.1684             0       8.77473      -2.32994             0       27.1336         17.67             0       73.5514             0             0      0.215478   4.37433e-06     0.0630948        111775        103370   2.00825e+06   8.01459e-06
    0.0287187       314.206       296.914       1828.87       21.3888       12.6516             0       8.49189      -2.43254             0       26.7324       17.6414             0       75.4482             0             0      0.215956   4.05231e-06     0.0610212        111768        103369   2.00966e+06    7.4246e-06
    0.0288864       313.811       296.546       1686.04       21.2663       13.1348             0       8.20905      -2.53514             0       26.3313       17.6127             0        77.345             0             0      0.216433    3.7303e-06     0.0589475        111760        103367   2.01107e+06    6.8346e-06
    0.0290541       313.493       296.204       1559.57       21.0764       13.5645             0       7.92692      -2.63916             0       25.9679       17.5671             0       79.2075             0             0      0.216789   3.52895e-06      0.057404        111751        103366   2.01228e+06    6.4657e-06
    0.0292217       313.339       295.919       1467.49       20.7449       13.8813             0       7.64628      -2.74614             0       25.6839       17.4859             0        80.998             0             0      0.216887   3.58124e-06     0.0569747        111738        103364   2.01308e+06    6.5615e-06
    0.0293894       313.184       295.633       1375.41       20.4134       14.1982             0       7.36565      -2.85313             0       25.3998       17.4046             0       82.7884             0             0      0.216986   3.63352e-06     0.0565455        111725        103363   2.01388e+06   6.65729e-06
    0.0295571       313.029       295.348       1283.33       20.0819       14.5151             0       7.08501      -2.96012             0       25.1158       17.3233             0       84.5788             0             0      0.217085   3.68581e-06     0.0561162        111712        103361   2.01468e+06   6.75309e-06
    0.0297247       312.875       295.063       1191.25       19.7504        14.832             0       6.80437       -3.0671             0       24.8317        17.242             0       86.3692             0             0      0.217183   3.73809e-06     0.0556869        111699        103360   2.01549e+06   6.84889e-06
    0.0298924        312.72       294.777       1099.17       19.4189       15.1489             0       6.52374      -3.17409             0       24.5477       17.1608             0       88.1596             0             0      0.217282   3.79038e-06     0.0552576        111686        103358   2.01629e+06   6.94468e-06
    0.0300601       312.572       294.514       1018.55       19.0663       15.3984             0       6.24646      -3.28149             0       24.3194       17.0448             0       89.8328             0             0      0.217328   3.88621e-06      0.055054        111673        103357   2.01685e+06   7.12026e-06
    0.0302277       312.436       294.288       958.458       18.6759        15.527             0       5.97518      -3.38962             0       24.1912       16.8667             0       91.2958             0             0      0.217282   4.06005e-06     0.0552547        111659        103356   2.01697e+06   7.43877e-06
    0.0303954         312.3       294.063        898.37       18.2855       15.6556             0       5.70391      -3.49775             0        24.063       16.6885             0       92.7587             0             0      0.217235    4.2339e-06     0.0554554        111646        103354    2.0171e+06   7.75729e-06
    0.0305631       312.164       293.838       838.282       17.8951       15.7842             0       5.43264      -3.60588             0       23.9347       16.5104             0       94.2217             0             0      0.217189   4.40774e-06     0.0556561        111632        103353   2.01723e+06   8.07581e-06
    0.0307307       312.028       293.612       778.194       17.5047       15.9129             0       5.16137      -3.71402             0       23.8065       16.3322             0       95.6847             0             0      0.217142   4.58159e-06     0.0558568        111619        103352   2.01736e+06   8.39432e-06
    0.0308984       311.892       293.387       718.106       17.1142       16.0415             0       4.89009      -3.82215             0       23.6782       16.1541             0       97.1477             0             0      0.217096   4.75543e-06     0.0560575        111605        103350   2.01748e+06   8.71284e-06
    0.0310661       311.713       293.181       666.367       16.7353       16.1139             0       4.62397      -3.92843             0       23.6143       15.9459             0       98.4431             0             0      0.217013   4.95338e-06     0.0564136        111593        103349   2.01736e+06   9.07551e-06
    0.0312337       311.468       293.005       627.468       16.3741       16.0998             0       4.36576      -4.03188             0       23.6494       15.6915             0       99.4809             0             0      0.216876   5.18838e-06     0.0570089        111581        103348   2.01686e+06   9.50607e-06
    0.0314014       311.224       292.828       588.569       16.0129       16.0858             0       4.10756      -4.13532             0       23.6845       15.4371             0       100.519             0             0      0.216738   5.42338e-06     0.0576042        111570        103347   2.01635e+06   9.93664e-06
    0.0315691       310.979       292.652        549.67       15.6517       16.0717             0       3.84935      -4.23877             0       23.7196       15.1827             0       101.556             0             0      0.216601   5.65838e-06     0.0581995        111559        103346   2.01585e+06   1.03672e-05
    0.0317367       310.735       292.475       510.771       15.2904       16.0577             0       3.59114      -4.34221             0       23.7547       14.9283             0       102.594             0             0      0.216463   5.89338e-06     0.0587949        111548        103345   2.01534e+06   1.07978e-05
    0.0319044        310.49       292.299       471.871       14.9292       16.0436             0       3.33294      -4.44566             0       23.7898        14.674             0       103.632             0             0      0.216326   6.12838e-06     0.0593902        111537        103344   2.01483e+06   1.12283e-05
    0.0320721       310.052       292.142       439.328        14.585       16.0122             0       3.08107        -4.545             0       23.8835       14.4119             0       104.496             0             0      0.216164   6.43182e-06     0.0600902        111527        103344   2.01413e+06   1.17843e-05
    0.0322397       309.359       292.011       415.215       14.2633       15.9576             0       2.83762      -4.63888             0       24.0549       14.1397             0       105.129             0             0       0.21597   6.82603e-06     0.0609292        111518        103343   2.01316e+06   1.25066e-05
    0.0324074       308.665        291.88       391.102       13.9416       15.9031             0       2.59416      -4.73277             0       24.2262       13.8675             0       105.762             0             0      0.215776   7.22024e-06     0.0617683        111509        103342   2.01219e+06   1.32288e-05
    0.0325751       307.971       291.749       366.988       13.6199       15.8486             0       2.35071      -4.82666             0       24.3976       13.5953             0       106.395             0             0      0.215582   7.61444e-06     0.0626073        111500        103341   2.01122e+06   1.39511e-05
    0.0327427       307.277       291.618       342.875       13.2981       15.7941             0       2.10725      -4.92054             0        24.569       13.3231             0       107.028             0             0      0.215389   8.00865e-06     0.0634463        111491        103341   2.01026e+06   1.46733e-05
    0.0329104       306.584       291.487       318.762       12.9764       15.7396             0        1.8638      -5.01443             0       24.7404       13.0509             0       107.662             0             0      0.215195   8.40286e-06     0.0642853        111482        103340   2.00929e+06   1.53956e-05
    0.0330781       305.811       291.374       298.956       12.6764       15.7095             0       1.62923      -5.10262             0       24.9115       12.8229             0       108.121             0             0      0.215026   8.79505e-06      0.065013        111473        103339   2.00818e+06   1.61142e-05
    0.0332457       304.949        291.28       284.093       12.4011       15.7075             0       1.40485      -5.18427             0       25.0821       12.6455             0        108.38             0             0      0.214887   9.18491e-06     0.0656128        111465        103339   2.00692e+06   1.68285e-05
    0.0334134       304.086       291.186        269.23       12.1259       15.7055             0       1.18048      -5.26592             0       25.2527       12.4682             0       108.639             0             0      0.214749   9.57477e-06     0.0662126        111457        103339   2.00565e+06   1.75428e-05
    0.0335811       303.224       291.093       254.367       11.8507       15.7035             0      0.956107      -5.34757             0       25.4233       12.2908             0       108.899             0             0       0.21461   9.96463e-06     0.0668125        111448        103338   2.00439e+06   1.82571e-05
    0.0337487       302.361       290.999       239.504       11.5754       15.7016             0      0.731734      -5.42922             0        25.594       12.1135             0       109.158             0             0      0.214471   1.03545e-05     0.0674123        111440        103338   2.00313e+06   1.89714e-05
    0.0339164       301.499       290.905       224.641       11.3002       15.6996             0      0.507361      -5.51087             0       25.7646       11.9361             0       109.417             0             0      0.214332   1.07444e-05     0.0680121        111432        103337   2.00186e+06   1.96857e-05
    0.0340841       300.748       290.826       212.638       11.0391       15.7495             0      0.294524      -5.58513             0       25.8805       11.8363             0       109.501             0             0       0.21425   1.10407e-05     0.0683676        111424        103337   2.00051e+06   2.02286e-05
    0.0342518       300.107       290.761       203.478       10.7921        15.851             0     0.0931551      -5.65204             0       25.9419       11.8134             0       109.411             0             0      0.214223   1.12441e-05       0.06848        111416        103337   1.99907e+06   2.06013e-05
    0.0344194       299.467       290.695       194.319       10.5451       15.9526             0     -0.108214      -5.71895             0       26.0034       11.7906             0       109.321             0             0      0.214197   1.14475e-05     0.0685925        111409        103337   1.99763e+06   2.09739e-05
    0.0345871       298.827        290.63       185.159        10.298       16.0541             0     -0.309583      -5.78586             0       26.0649       11.7677             0       109.231             0             0      0.214171   1.16509e-05      0.068705        111402        103337   1.99618e+06   2.13465e-05
    0.0347548       298.187       290.564       175.999        10.051       16.1557             0     -0.510951      -5.85278             0       26.1263       11.7449             0        109.14             0             0      0.214144   1.18542e-05     0.0688175        111395        103337   1.99474e+06   2.17192e-05
    0.0349224       297.546       290.499       166.839       9.80395       16.2572             0      -0.71232      -5.91969             0       26.1878        11.722             0        109.05             0             0      0.214118   1.20576e-05       0.06893        111387        103337    1.9933e+06   2.20918e-05
    0.0350901       297.029       290.445       159.565       9.54787       16.3969             0     -0.903313      -5.97714             0       26.1901       11.7526             0        108.76             0             0      0.214119   1.21828e-05     0.0689255        111381        103337   1.99192e+06   2.23212e-05
    0.0352578       296.618         290.4       153.915         9.284       16.5694             0      -1.08537      -6.02646             0       26.1415       11.8292             0       108.297             0             0      0.214143   1.22407e-05     0.0688202        111376        103337   1.99061e+06   2.24272e-05