#           y             T         TMean   TPrime2Mean           U_x           U_y           U_z       UMean_x       UMean_y       UMean_z UPrime2Mea... UPrime2Mea... UPrime2Mea... UPrime2Mea... UPrime2Mea... UPrime2Mea...            O2           H2O          C3H8             p         pMean   pPrime2Mean           CO2
         0.04       292.699       289.404       39.3344     -0.748781       20.2799             0      -4.46327      -5.77852             0       21.2261       11.7821             0       71.0711             0             0      0.215876   6.80422e-06     0.0613387        111272        103369   1.94767e+06   1.24666e-05
     0.039975       292.686       289.403       39.2778     -0.677075       20.2913             0      -4.45673       -5.7839             0       21.2604       11.7672             0       71.3164             0             0      0.215874   6.79235e-06     0.0613496        111271        103369   1.94748e+06   1.24448e-05
    0.0399499       292.674       289.402       39.2211     -0.605369       20.3027             0      -4.45019      -5.78928             0       21.2948       11.7523             0       71.5618             0             0      0.215871   6.78047e-06     0.0613606        111271        103368   1.94729e+06   1.24231e-05
    0.0399249       292.661       289.401       39.1644     -0.533662       20.3141             0      -4.44365      -5.79466             0       21.3291       11.7374             0       71.8071             0             0      0.215869    6.7686e-06     0.0613715        111270        103368   1.94711e+06   1.24013e-05
    0.0398999       292.648       289.399       39.1077     -0.461956       20.3255             0      -4.43712      -5.80004             0       21.3634       11.7226             0       72.0524             0             0      0.215866   6.75673e-06     0.0613824        111269        103368   1.94692e+06   1.23796e-05
    0.0398749       292.636       289.398       39.0511      -0.39025       20.3369             0      -4.43058      -5.80542             0       21.3978       11.7077             0       72.2978             0             0      0.215864   6.74486e-06     0.0613933        111268        103368   1.94673e+06   1.23578e-05
    0.0398498       292.623       289.397       38.9944     -0.318543       20.3483             0      -4.42404      -5.81081             0       21.4321       11.6928             0       72.5431             0             0      0.215861   6.73299e-06     0.0614042        111268        103368   1.94654e+06   1.23361e-05
    0.0398248        292.61       289.396       38.9377     -0.246837       20.3597             0       -4.4175      -5.81619             0       21.4664       11.6779             0       72.7885             0             0      0.215859   6.72111e-06     0.0614151        111267        103367   1.94635e+06   1.23143e-05
    0.0397998       292.598       289.394        38.881     -0.175131       20.3711             0      -4.41096      -5.82157             0       21.5007       11.6631             0       73.0338             0             0      0.215857   6.70924e-06     0.0614261        111266        103367   1.94616e+06   1.22926e-05
    0.0397748       292.585       289.393       38.8244     -0.103425       20.3825             0      -4.40443      -5.82695             0       21.5351       11.6482             0       73.2791             0             0      0.215854   6.69737e-06      0.061437        111265        103367   1.94597e+06   1.22708e-05
    0.0397497       292.573       289.392       38.7677    -0.0317182       20.3938             0      -4.39789      -5.83233             0       21.5694       11.6333             0       73.5245             0             0      0.215852    6.6855e-06     0.0614479        111265        103367   1.94578e+06   1.22491e-05
    0.0397247        292.56       289.391        38.711     0.0399881       20.4052             0      -4.39135      -5.83771             0       21.6037       11.6184             0       73.7698             0             0      0.215849   6.67363e-06     0.0614588        111264        103367    1.9456e+06   1.22273e-05
    0.0396997       292.547       289.389       38.6544      0.111694       20.4166             0      -4.38481      -5.84309             0       21.6381       11.6036             0       74.0152             0             0      0.215847   6.66176e-06     0.0614697        111263        103366   1.94541e+06   1.22056e-05
    0.0396747       292.535       289.388       38.5977      0.183401        20.428             0      -4.37827      -5.84847             0       21.6724       11.5887             0       74.2605             0             0      0.215844   6.64988e-06     0.0614807        111262        103366   1.94522e+06   1.21838e-05
    0.0396496       292.522       289.387        38.541      0.255107       20.4394             0      -4.37174      -5.85385             0       21.7067       11.5738             0       74.5058             0             0      0.215842   6.63801e-06     0.0614916        111262        103366   1.94503e+06   1.21621e-05
    0.0396246       292.509       289.386       38.4843      0.326813       20.4508             0       -4.3652      -5.85923             0       21.7411       11.5589             0       74.7512             0             0      0.215839   6.62614e-06     0.0615025        111261        103366   1.94484e+06   1.21403e-05
    0.0395996       292.497       289.384       38.4277       0.39852       20.4622             0      -4.35866      -5.86461             0       21.7754       11.5441             0       74.9965             0             0      0.215837   6.61427e-06     0.0615134        111260        103366   1.94465e+06   1.21186e-05
    0.0395746       292.484       289.383        38.371      0.470226       20.4736             0      -4.35212         -5.87             0       21.8097       11.5292             0       75.2418             0             0      0.215834    6.6024e-06     0.0615243        111260        103365   1.94446e+06   1.20968e-05
    0.0395495       292.472       289.382       38.3143      0.541932        20.485             0      -4.34558      -5.87538             0       21.8441       11.5143             0       75.4872             0             0      0.215832   6.59052e-06     0.0615353        111259        103365   1.94427e+06   1.20751e-05
    0.0395245       292.459       289.381       38.2576      0.613639       20.4964             0      -4.33904      -5.88076             0       21.8784       11.4994             0       75.7325             0             0      0.215829   6.57865e-06     0.0615462        111258        103365   1.94409e+06   1.20533e-05
    0.0394995       292.446       289.379        38.201      0.685345       20.5078             0      -4.33251      -5.88614             0       21.9127       11.4846             0       75.9779             0             0      0.215827   6.56678e-06     0.0615571        111257        103365    1.9439e+06   1.20316e-05
    0.0394745       292.434       289.378       38.1443      0.757051       20.5192             0      -4.32597      -5.89152             0       21.9471       11.4697             0       76.2232             0             0      0.215824   6.55491e-06      0.061568        111257        103365   1.94371e+06   1.20098e-05
    0.0394494       292.421       289.377       38.0876      0.828757       20.5306             0      -4.31943       -5.8969             0       21.9814       11.4548             0       76.4685             0             0      0.215822   6.54304e-06     0.0615789        111256        103364   1.94352e+06   1.19881e-05
    0.0394244       292.408       289.376       38.0309      0.900464        20.542             0      -4.31289      -5.90228             0       22.0157       11.4399             0       76.7139             0             0      0.215819   6.53116e-06     0.0615899        111255        103364   1.94333e+06   1.19663e-05
    0.0393994       292.396       289.375       37.9743       0.97217       20.5534             0      -4.30635      -5.90766             0       22.0501       11.4251             0       76.9592             0             0      0.215817   6.51929e-06     0.0616008        111254        103364   1.94314e+06   1.19446e-05
    0.0393744       292.383       289.373       37.9176       1.04388       20.5648             0      -4.29982      -5.91304             0       22.0844       11.4102             0       77.2045             0             0      0.215814   6.50742e-06     0.0616117        111254        103364   1.94295e+06   1.19228e-05
    0.0393493       292.371       289.372       37.8609       1.11558       20.5762             0      -4.29328      -5.91842             0       22.1187       11.3953             0       77.4499             0             0      0.215812   6.49555e-06     0.0616226        111253        103364   1.94276e+06   1.19011e-05
    0.0393243       292.358       289.371       37.8043       1.18729       20.5876             0      -4.28674       -5.9238             0       22.1531       11.3804             0       77.6952             0             0      0.215809   6.48368e-06     0.0616335        111252        103363   1.94258e+06   1.18793e-05
    0.0392993       292.345        289.37       37.7476         1.259        20.599             0       -4.2802      -5.92918             0       22.1874       11.3656             0       77.9406             0             0      0.215807    6.4718e-06     0.0616445        111251        103363   1.94239e+06   1.18576e-05
    0.0392743       292.333       289.368       37.6909        1.3307       20.6104             0      -4.27366      -5.93457             0       22.2217       11.3507             0       78.1859             0             0      0.215804   6.45993e-06     0.0616554        111251        103363    1.9422e+06   1.18358e-05
    0.0392492        292.32       289.367       37.6342       1.40241       20.6218             0      -4.26713      -5.93995             0       22.2561       11.3358             0       78.4312             0             0      0.215802   6.44806e-06     0.0616663        111250        103363   1.94201e+06    1.1814e-05
    0.0392242       292.307       289.366       37.5776       1.47411       20.6332             0      -4.26059      -5.94533             0       22.2904        11.321             0       78.6766             0             0      0.215799   6.43619e-06     0.0616772        111249        103363   1.94182e+06   1.17923e-05
    0.0391992       292.295       289.365       37.5209       1.54582       20.6446             0      -4.25405      -5.95071             0       22.3247       11.3061             0       78.9219             0             0      0.215797   6.42432e-06     0.0616881        111249        103362   1.94163e+06   1.17705e-05
    0.0391742       292.282       289.363       37.4642       1.61753        20.656             0      -4.24751      -5.95609             0       22.3591       11.2912             0       79.1672             0             0      0.215794   6.41244e-06      0.061699        111248        103362   1.94144e+06   1.17488e-05
    0.0391491        292.27       289.362       37.4075       1.68923       20.6674             0      -4.24097      -5.96147             0       22.3934       11.2763             0       79.4126             0             0      0.215792   6.40057e-06       0.06171        111247        103362   1.94125e+06    1.1727e-05
    0.0391241       292.257       289.361       37.3509       1.76094       20.6788             0      -4.23443      -5.96685             0       22.4277       11.2615             0       79.6579             0             0      0.215789    6.3887e-06     0.0617209        111246        103362   1.94107e+06   1.17053e-05
    0.0390991       292.244        289.36       37.2942       1.83265       20.6902             0       -4.2279      -5.97223             0       22.4621       11.2466             0       79.9033             0             0      0.215787   6.37683e-06     0.0617318        111246        103362   1.94088e+06   1.16835e-05
    0.0390741       292.232       289.358       37.2375       1.90435       20.7016             0      -4.22136      -5.97761             0       22.4964       11.2317             0       80.1486             0             0      0.215784   6.36496e-06     0.0617427        111245        103361   1.94069e+06   1.16618e-05
     0.039049       292.219       289.357       37.1808       1.97606        20.713             0      -4.21482      -5.98299             0       22.5307       11.2168             0       80.3939             0             0      0.215782   6.35308e-06     0.0617536        111244        103361    1.9405e+06     1.164e-05
     0.039024       292.206       289.356       37.1242       2.04776       20.7244             0      -4.20828      -5.98837             0       22.5651        11.202             0       80.6393             0             0       0.21578   6.34121e-06     0.0617646        111243        103361   1.94031e+06   1.16183e-05
     0.038999       292.194       289.355       37.0704       2.11948        20.735             0       -4.2015      -5.99365             0       22.5996       11.1877             0       80.8838             0             0      0.215777    6.3297e-06     0.0617759        111243        103361   1.94013e+06   1.15972e-05
     0.038974       292.196       289.354       37.0865       2.19146       20.7283             0      -4.18897      -5.99639             0       22.6402       11.1887             0       81.1101             0             0      0.215772   6.32679e-06     0.0617967        111242        103361   1.94007e+06   1.15919e-05
    0.0389489       292.198       289.354       37.1025       2.26345       20.7216             0      -4.17643      -5.99914             0       22.6808       11.1898             0       81.3363             0             0      0.215767   6.32388e-06     0.0618175        111242        103360   1.94001e+06   1.15865e-05
    0.0389239       292.199       289.354       37.1186       2.33543       20.7149             0       -4.1639      -6.00188             0       22.7214       11.1908             0       81.5625             0             0      0.215763   6.32098e-06     0.0618383        111242        103360   1.93995e+06   1.15812e-05
    0.0388989       292.201       289.354       37.1346       2.40741       20.7082             0      -4.15136      -6.00463             0       22.7619       11.1918             0       81.7887             0             0      0.215758   6.31807e-06     0.0618591        111241        103360   1.93989e+06   1.15759e-05
    0.0388739       292.202       289.353       37.1506       2.47939       20.7015             0      -4.13883      -6.00737             0       22.8025       11.1928             0        82.015             0             0      0.215753   6.31516e-06     0.0618799        111241        103360   1.93983e+06   1.15706e-05
    0.0388488       292.204       289.353       37.1667       2.55137       20.6947             0       -4.1263      -6.01011             0       22.8431       11.1939             0       82.2412             0             0      0.215748   6.31226e-06     0.0619007        111241        103360   1.93977e+06   1.15652e-05
    0.0388238       292.206       289.353       37.1827       2.62335        20.688             0      -4.11376      -6.01286             0       22.8837       11.1949             0       82.4674             0             0      0.215744   6.30935e-06     0.0619215        111241        103360   1.93971e+06   1.15599e-05
    0.0387988       292.207       289.353       37.1988       2.69533       20.6813             0      -4.10123       -6.0156             0       22.9242       11.1959             0       82.6936             0             0      0.215739   6.30644e-06     0.0619423        111240        103359   1.93965e+06   1.15546e-05
    0.0387738       292.209       289.352       37.2148       2.76732       20.6746             0      -4.08869      -6.01835             0       22.9648       11.1969             0       82.9199             0             0      0.215734   6.30353e-06     0.0619631        111240        103359    1.9396e+06   1.15493e-05
    0.0387487        292.21       289.352       37.2309        2.8393       20.6679             0      -4.07616      -6.02109             0       23.0054        11.198             0       83.1461             0             0      0.215729   6.30063e-06     0.0619839        111240        103359   1.93954e+06   1.15439e-05
    0.0387237       292.212       289.352       37.2469       2.91128       20.6611             0      -4.06362      -6.02384             0        23.046        11.199             0       83.3723             0             0      0.215724   6.29772e-06     0.0620047        111239        103359   1.93948e+06   1.15386e-05
    0.0386987       292.214       289.352        37.263       2.98326       20.6544             0      -4.05109      -6.02658             0       23.0865          11.2             0       83.5985             0             0       0.21572   6.29481e-06     0.0620255        111239        103359   1.93942e+06   1.15333e-05
    0.0386737       292.215       289.351        37.279       3.05524       20.6477             0      -4.03855      -6.02932             0       23.1271        11.201             0       83.8248             0             0      0.215715   6.29191e-06     0.0620463        111239        103359   1.93936e+06   1.15279e-05
    0.0386486       292.217       289.351       37.2951       3.12722        20.641             0      -4.02602      -6.03207             0       23.1677       11.2021             0        84.051             0             0       0.21571     6.289e-06     0.0620671        111239        103358    1.9393e+06   1.15226e-05
    0.0386236       292.218       289.351       37.3111        3.1992       20.6343             0      -4.01348      -6.03481             0       23.2083       11.2031             0       84.2772             0             0      0.215705   6.28609e-06     0.0620879        111238        103358   1.93924e+06   1.15173e-05
    0.0385986        292.22       289.351       37.3272       3.27119       20.6275             0      -4.00095      -6.03756             0       23.2488       11.2041             0       84.5035             0             0      0.215701   6.28318e-06     0.0621087        111238        103358   1.93918e+06    1.1512e-05
    0.0385736       292.222        289.35       37.3432       3.34317       20.6208             0      -3.98841       -6.0403             0       23.2894       11.2051             0       84.7297             0             0      0.215696   6.28028e-06     0.0621295        111238        103358   1.93912e+06   1.15066e-05
    0.0385485       292.223        289.35       37.3593       3.41515       20.6141             0      -3.97588      -6.04304             0         23.33       11.2062             0       84.9559             0             0      0.215691   6.27737e-06     0.0621503        111237        103358   1.93906e+06   1.15013e-05
    0.0385235       292.225        289.35       37.3753       3.48713       20.6074             0      -3.96334      -6.04579             0       23.3705       11.2072             0       85.1821             0             0      0.215686   6.27446e-06     0.0621711        111237        103357     1.939e+06    1.1496e-05
    0.0384985       292.227        289.35       37.3914       3.55911       20.6007             0      -3.95081      -6.04853             0       23.4111       11.2082             0       85.4084             0             0      0.215681   6.27155e-06     0.0621919        111237        103357   1.93894e+06   1.14907e-05
    0.0384735       292.228       289.349       37.4074       3.63109       20.5939             0      -3.93827      -6.05128             0       23.4517       11.2092             0       85.6346             0             0      0.215677   6.26865e-06     0.0622127        111236        103357   1.93889e+06   1.14853e-05
    0.0384484        292.23       289.349       37.4235       3.70307       20.5872             0      -3.92574      -6.05402             0       23.4923       11.2103             0       85.8608             0             0      0.215672   6.26574e-06     0.0622335        111236        103357   1.93883e+06     1.148e-05
    0.0384234       292.231       289.349       37.4395       3.77506       20.5805             0       -3.9132      -6.05677             0       23.5328       11.2113             0        86.087             0             0      0.215667   6.26283e-06     0.0622543        111236        103357   1.93877e+06   1.14747e-05
    0.0383984       292.233       289.349       37.4555       3.84704       20.5738             0      -3.90067      -6.05951             0       23.5734       11.2123             0       86.3133             0             0      0.215662   6.25993e-06     0.0622751        111236        103357   1.93871e+06   1.14694e-05
    0.0383734       292.235       289.348       37.4716       3.91902       20.5671             0      -3.88813      -6.06225             0        23.614       11.2133             0       86.5395             0             0      0.215658   6.25702e-06     0.0622959        111235        103356   1.93865e+06    1.1464e-05
    0.0383483       292.236       289.348       37.4876         3.991       20.5603             0       -3.8756        -6.065             0       23.6546       11.2144             0       86.7657             0             0      0.215653   6.25411e-06     0.0623167        111235        103356   1.93859e+06   1.14587e-05
    0.0383233       292.238       289.348       37.5037       4.06298       20.5536             0      -3.86306      -6.06774             0       23.6951       11.2154             0       86.9919             0             0      0.215648    6.2512e-06     0.0623375        111235        103356   1.93853e+06   1.14534e-05
    0.0382983       292.239       289.348       37.5197       4.13496       20.5469             0      -3.85053      -6.07049             0       23.7357       11.2164             0       87.2182             0             0      0.215643    6.2483e-06     0.0623583        111234        103356   1.93847e+06    1.1448e-05
    0.0382733       292.241       289.347       37.5358       4.20695       20.5402             0      -3.83799      -6.07323             0       23.7763       11.2174             0       87.4444             0             0      0.215638   6.24539e-06     0.0623791        111234        103356   1.93841e+06   1.14427e-05
    0.0382482       292.243       289.347       37.5518       4.27893       20.5335             0      -3.82546      -6.07597             0       23.8169       11.2185             0       87.6706             0             0      0.215634   6.24248e-06     0.0623999        111234        103355   1.93835e+06   1.14374e-05
    0.0382232       292.244       289.347       37.5679       4.35091       20.5267             0      -3.81292      -6.07872             0       23.8574       11.2195             0       87.8968             0             0      0.215629   6.23958e-06     0.0624207        111234        103355   1.93829e+06   1.14321e-05
    0.0381982       292.246       289.347       37.5839       4.42289         20.52             0      -3.80039      -6.08146             0        23.898       11.2205             0       88.1231             0             0      0.215624   6.23667e-06     0.0624415        111233        103355   1.93824e+06   1.14267e-05
    0.0381732       292.247       289.346          37.6       4.49487       20.5133             0      -3.78785      -6.08421             0       23.9386       11.2215             0       88.3493             0             0      0.215619   6.23376e-06     0.0624623        111233        103355   1.93818e+06   1.14214e-05
    0.0381481       292.249       289.346        37.616       4.56685       20.5066             0      -3.77532      -6.08695             0       23.9792       11.2226             0       88.5755             0             0      0.215615   6.23085e-06     0.0624831        111233        103355   1.93812e+06   1.14161e-05
    0.0381231       292.251       289.346       37.6321       4.63883       20.4999             0      -3.76278       -6.0897             0       24.0197       11.2236             0       88.8017             0             0       0.21561   6.22795e-06     0.0625039        111232        103355   1.93806e+06   1.14108e-05
    0.0380981       292.252       289.346       37.6481       4.71082       20.4932             0      -3.75025      -6.09244             0       24.0603       11.2246             0        89.028             0             0      0.215605   6.22504e-06     0.0625247        111232        103354     1.938e+06   1.14054e-05
    0.0380731       292.254       289.345       37.6642        4.7828       20.4864             0      -3.73771      -6.09518             0       24.1009       11.2256             0       89.2542             0             0        0.2156   6.22213e-06     0.0625455        111232        103354   1.93794e+06   1.14001e-05
     0.038048       292.256       289.345       37.6802       4.85478       20.4797             0      -3.72518      -6.09793             0       24.1415       11.2266             0       89.4804             0             0      0.215595   6.21922e-06     0.0625663        111231        103354   1.93788e+06   1.13948e-05
     0.038023       292.257       289.345       37.6963       4.92676        20.473             0      -3.71264      -6.10067             0        24.182       11.2277             0       89.7066             0             0      0.215591   6.21632e-06     0.0625871        111231        103354   1.93782e+06   1.13895e-05
     0.037998       292.259       289.345       37.7192       4.99803        20.465             0      -3.69967      -6.10315             0       24.2214       11.2295             0       89.9302             0             0      0.215586   6.21348e-06      0.062609        111231        103354   1.93777e+06   1.13843e-05
     0.037973       292.266       289.346       37.8209       5.06107       20.4418             0       -3.6816      -6.10261             0       24.2475         11.24             0       90.1237             0             0      0.215578   6.21145e-06     0.0626425        111231        103354   1.93783e+06   1.13805e-05
    0.0379479       292.273       289.347       37.9227       5.12412       20.4186             0      -3.66353      -6.10207             0       24.2736       11.2506             0       90.3172             0             0       0.21557   6.20943e-06      0.062676        111232        103353   1.93789e+06   1.13768e-05
    0.0379229       292.279       289.348       38.0245       5.18716       20.3955             0      -3.64546      -6.10152             0       24.2997       11.2611             0       90.5106             0             0      0.215562    6.2074e-06     0.0627096        111232        103353   1.93794e+06   1.13731e-05
    0.0378979       292.286       289.349       38.1263       5.25021       20.3723             0      -3.62739      -6.10098             0       24.3258       11.2716             0       90.7041             0             0      0.215555   6.20537e-06     0.0627431        111233        103353     1.938e+06   1.13694e-05
    0.0378729       292.293        289.35        38.228       5.31325       20.3491             0      -3.60932      -6.10043             0       24.3519       11.2822             0       90.8976             0             0      0.215547   6.20335e-06     0.0627767        111233        103353   1.93806e+06   1.13657e-05
    0.0378478         292.3       289.351       38.3298        5.3763        20.326             0      -3.59125      -6.09989             0        24.378       11.2927             0        91.091             0             0      0.215539   6.20132e-06     0.0628102        111234        103353   1.93811e+06    1.1362e-05
    0.0378228       292.306       289.352       38.4316       5.43934       20.3028             0      -3.57318      -6.09935             0       24.4041       11.3033             0       91.2845             0             0      0.215532   6.19929e-06     0.0628437        111234        103353   1.93817e+06   1.13583e-05
    0.0377978       292.313       289.353       38.5334       5.50239       20.2797             0      -3.55511       -6.0988             0       24.4302       11.3138             0        91.478             0             0      0.215524   6.19727e-06     0.0628773        111235        103353   1.93823e+06   1.13545e-05
    0.0377728        292.32       289.354       38.6352       5.56543       20.2565             0      -3.53704      -6.09826             0       24.4563       11.3244             0       91.6714             0             0      0.215516   6.19524e-06     0.0629108        111235        103353   1.93828e+06   1.13508e-05
    0.0377477       292.326       289.355       38.7369       5.62848       20.2333             0      -3.51897      -6.09771             0       24.4824       11.3349             0       91.8649             0             0      0.215508   6.19321e-06     0.0629444        111236        103352   1.93834e+06   1.13471e-05
    0.0377227       292.333       289.356       38.8387       5.69152       20.2102             0       -3.5009      -6.09717             0       24.5085       11.3455             0       92.0584             0             0      0.215501   6.19119e-06     0.0629779        111236        103352    1.9384e+06   1.13434e-05