#           y             T         TMean   TPrime2Mean           U_x           U_y           U_z       UMean_x       UMean_y       UMean_z UPrime2Mea... UPrime2Mea... UPrime2Mea... UPrime2Mea... UPrime2Mea... UPrime2Mea...            O2           H2O          C3H8             p         pMean   pPrime2Mean           CO2
            0       290.211       288.122      0.222363       19.9476             0             0       22.7781             0             0       5.86559             0             0             0             0             0          0.23   4.64872e-16   4.64989e-09        111939        103449   2.03849e+06   8.51733e-16
  0.000500501       290.208       288.122      0.222324       19.9646     -0.217099             0       22.7805    -0.0138876             0         5.884      0.130889             0     0.0623231             0             0          0.23   1.40689e-14   6.11768e-08        111932        103448   2.03795e+06   2.57769e-14
     0.001001       290.205       288.122      0.222284       19.9816     -0.434202             0       22.7828    -0.0277679             0       5.90255      0.261786             0      0.124749             0             0          0.23   3.01214e-14   1.21599e-07        111924        103448    2.0374e+06   5.51881e-14
    0.0015015       290.198       288.122      0.222359       20.0102     -0.653781             0       22.7755    -0.0380297             0        5.9934      0.396128             0       0.23823             0             0          0.23   1.26795e-12   2.12581e-06        111907        103448    2.0367e+06   2.32313e-12
     0.002002       290.191       288.122      0.222436        20.039     -0.873536             0       22.7682    -0.0483178             0       6.08456      0.530633             0      0.352345             0             0      0.229999   2.75647e-12   4.27894e-06        111889        103449   2.03599e+06   5.05037e-12
    0.0025025       290.183       288.122      0.222875       20.0884      -1.13721             0       22.7664    -0.0651411             0       6.25511      0.705436             0       0.62419             0             0       0.22999   6.66651e-11   4.35124e-05        111867        103449   2.03465e+06   1.22143e-10
     0.003003       290.176       288.123      0.223381       20.1378       -1.4012             0       22.7644    -0.0818853             0       6.42718      0.880255             0      0.896791             0             0       0.22998   1.42693e-10   8.49865e-05        111846        103449    2.0333e+06   2.61441e-10
    0.0035035       290.175       288.131      0.234897       20.1861      -1.71886             0        22.747     -0.085538             0       6.84977       1.05788             0       1.29469             0             0      0.229886   2.22654e-09   0.000497664        111831        103449   2.03277e+06   4.07943e-09
     0.004004       290.175       288.139      0.249306       20.2341      -2.03772             0       22.7296    -0.0893032             0       7.27487       1.23707             0       1.69704             0             0      0.229785   4.85633e-09   0.000935796        111816        103449   2.03224e+06   8.89771e-09
    0.0045045       290.242       288.209       0.62246       20.2516       -2.5057             0       22.7264     -0.107008             0        8.0111       1.61054             0       2.65062             0             0      0.228958   7.51847e-08     0.0045303        111806        103448   2.03143e+06   1.37752e-07
   0.00500501       290.317       288.281       1.07452       20.2676      -2.97529             0       22.7226      -0.12448             0       8.75549       1.98318             0       3.61172             0             0      0.228099   1.58238e-07    0.00826473        111797        103447   2.03064e+06   2.89922e-07
   0.00550551       291.086       288.679       9.33795       20.1455       -3.6047             0       22.6644     -0.118919             0       10.3074       2.27356             0       5.31716             0             0      0.224051    1.5011e-06     0.0258516        111790        103446    2.0321e+06    2.7503e-06
   0.00600601       291.902       289.089       18.5235       20.0198      -4.23656             0       22.6063     -0.113821             0       11.8548       2.57161             0       7.05113             0             0      0.219926   3.00634e-06     0.0437688        111784        103445   2.03357e+06   5.50818e-06
   0.00650651       296.679       290.429       103.629       19.5995      -5.07014             0       22.5581      -0.14687             0       13.0302       3.50122             0       11.1334             0             0      0.209513   1.78807e-05     0.0888897        111769        103442   2.03679e+06   3.27608e-05
   0.00700701       301.592       291.799       195.125       19.1734      -5.90173             0       22.5094     -0.178887             0       14.1819       4.42577             0       15.2335             0             0      0.199064   3.36958e-05      0.134159        111754        103438   2.04009e+06    6.1737e-05
   0.00750751       316.042       295.349       736.744       18.3406      -6.59294             0       22.4316     -0.138223             0       13.6717       4.99363             0       20.5921             0             0      0.186055   0.000115766      0.189876        111742        103433   2.04832e+06   0.000212105
   0.00800801       330.656       299.055       1393.94       17.5005      -7.26983             0       22.3432    -0.0978299             0       13.1579       5.51676             0       25.9613             0             0      0.173123   0.000200963       0.24523        111731        103428   2.05656e+06   0.000368201
   0.00850851       355.337       312.355       9158.99       16.2159       -7.0662             0       21.5996    -0.0741666             0       12.4278       3.28877             0       31.9872             0             0      0.164869   0.000478419      0.278266        111731        103422   2.06557e+06   0.000876552
   0.00900901       379.855       325.621       16909.1       14.9627      -6.85137             0       20.8578    -0.0483688             0       11.6923       1.04729             0       37.9953             0             0      0.156686   0.000751861       0.31104        111731        103415    2.0743e+06    0.00137755
   0.00950951       395.504       337.098         23845       15.4191      -6.02547             0       20.2116     0.0938749             0       10.6626      -1.93003             0       43.0282             0             0      0.152306   0.000806351      0.329522        111730        103411   2.06848e+06    0.00147739
      0.01001       410.928       348.377         30644       15.8789      -5.18919             0       19.5613      0.239298             0       9.65149      -4.86155             0       47.9645             0             0      0.147889     0.0008575        0.3482        111730        103407   2.06245e+06     0.0015711
    0.0105105       415.324       349.987       30736.9         16.51      -3.84388             0       18.7036      0.540486             0       9.55345      -5.54901             0       48.1677             0             0      0.141652   0.000744941      0.376476        111720        103410   2.04611e+06    0.00136487
     0.011011       419.716       351.586       30842.6       17.1147      -2.50293             0       17.8311      0.839419             0         9.506      -6.18411             0       48.2851             0             0      0.135392   0.000636099      0.404809        111711        103414   2.02978e+06    0.00116545
    0.0115115       423.946       352.676       31517.5       16.5424      -1.35599             0       16.3008       1.03806             0       11.7072        -4.492             0        44.585             0             0      0.128156   0.000692489      0.435692        111702        103421   2.01368e+06    0.00126877
     0.012012       428.229       353.774       32203.1       15.9781     -0.208707             0        14.772        1.2339             0       13.8998      -2.77513             0       40.8574             0             0       0.12101   0.000746821      0.466203        111693        103428   1.99761e+06    0.00136831
    0.0125125       434.695        355.17       33317.3       15.7355      0.952533             0       13.3015        1.3161             0       15.7428    -0.0510137             0        36.014             0             0      0.117547   0.000717446      0.481562        111683        103434    1.9828e+06     0.0013145
     0.013013       441.423       356.555       34424.7       15.4721       2.10967             0       11.8516        1.3951             0       17.5135       2.64063             0        31.211             0             0      0.114227   0.000686358      0.496314        111672        103439   1.96811e+06    0.00125754
    0.0135135       457.972       357.555       35276.9       14.4298       3.11327             0       11.1727       1.35465             0       16.5725       4.11582             0       27.9213             0             0       0.11629   0.000591089      0.488321        111652        103441   1.95835e+06    0.00108299
     0.014014       474.531       358.498         36090       13.3812       4.08657             0       10.5159       1.31526             0       15.5924       5.53476             0       24.6607             0             0      0.118362   0.000495302      0.480296        111633        103444   1.94871e+06   0.000907485
    0.0145145       491.379       357.477       35543.1       12.1148       4.00825             0       10.6269       1.31278             0       13.2503       5.00087             0       22.4124             0             0      0.120739   0.000381522      0.471132        111624        103445   1.94299e+06   0.000699019
     0.015015       507.783       356.413       34945.1       10.8783       3.92847             0       10.7381       1.30882             0       10.9638       4.47202             0       20.1852             0             0      0.122911   0.000268541      0.462849        111615        103446   1.93734e+06   0.000492017
    0.0155155       509.841       353.939         32693       10.6079       3.80137             0       10.8523       1.25715             0       10.4741       4.10602             0       18.6447             0             0      0.118472   0.000181407      0.483044        111609        103445   1.93404e+06   0.000332371
     0.016016       511.176       351.319       30349.2       10.3389       3.67988             0       10.9809       1.20324             0       10.0344       3.71476             0       17.1342             0             0      0.113983   9.59723e-05      0.503435        111601        103445   1.93077e+06   0.000175839
    0.0165165       490.611       344.243       25233.7       10.1141       3.72783             0       11.5441       1.08183             0        11.109       2.55901             0       16.5358             0             0      0.108001   6.19735e-05      0.529793        111580        103444    1.9285e+06   0.000113547
     0.017017       469.549       337.073       20099.6       9.89247       3.75655             0       12.1629      0.955272             0       12.2155       1.33301             0       15.9402             0             0      0.102287   2.87417e-05      0.554978        111559        103443   1.92622e+06   5.26601e-05
    0.0175175       434.374       327.215       14435.6       9.76048       3.23848             0       14.3582      0.682626             0       14.2291      -1.88881             0       15.4223             0             0      0.104183   1.73011e-05      0.546852        111535        103442   1.92383e+06   3.16988e-05
     0.018018       399.313       317.465       8865.64       9.68135       2.71488             0       16.5534      0.417726             0       16.2459      -5.07077             0       14.9137             0             0      0.106419   6.17677e-06      0.537244        111511        103442    1.9214e+06    1.1317e-05
    0.0185185       367.315       310.616       5816.03       11.0178        2.0429             0       18.7478      0.360257             0       18.3482      -7.18489             0       14.6535             0             0      0.117761    3.5224e-06       0.48796        111493        103441   1.91821e+06    6.4537e-06
     0.019019       335.896       303.886       2844.99        12.393       1.38154             0       20.8865      0.306221             0       20.3805      -9.22127             0       14.3948             0             0      0.129203   9.52181e-07      0.438239        111475        103439   1.91501e+06   1.74457e-06
    0.0195195       319.103       300.166       1862.93       14.7508      0.988979             0       21.6159      0.339114             0       20.6431      -9.28964             0       14.1733             0             0      0.143177   5.12019e-07      0.377485        111471        103440   1.91133e+06   9.38114e-07
      0.02002       302.827       296.512       907.617        17.103      0.627809             0       22.3311      0.372413             0       20.8446      -9.33609             0       13.9695             0             0      0.157114   8.83378e-08      0.316894        111467        103440   1.90774e+06   1.61851e-07
    0.0205205       298.958       294.453       593.907       19.3215       1.02001             0       22.7075      0.415435             0       19.5829      -8.85643             0       14.1933             0             0      0.170145   6.02099e-08      0.260237        111462        103439   1.90631e+06   1.10316e-07
     0.021021       295.191       292.433       288.882        21.505       1.42945             0       23.0707      0.463247             0       18.3086      -8.34009             0       14.4708             0             0      0.183119   3.28703e-08       0.20383        111456        103439    1.9049e+06   6.02245e-08
    0.0215215       293.747       291.277       181.931       22.8898       2.23218             0       23.1353      0.620316             0       16.7479      -6.98677             0       15.9772             0             0      0.194782   2.35104e-08      0.153122        111450        103437   1.90392e+06   4.30754e-08
     0.022022       292.337       290.147       78.3472       24.2379       3.03357             0       23.1769      0.776909             0       15.2349      -5.57918             0       17.4992             0             0      0.206239   1.43199e-08       0.10331        111444        103435   1.90295e+06   2.62367e-08
    0.0225225       291.631       289.578       47.9196       24.7891       3.80581             0       22.7186      0.923163             0       14.7562       -2.9922             0       19.3615             0             0      0.213216   8.80963e-09     0.0729737        111442        103432   1.90234e+06   1.61409e-08
     0.023023       290.946       289.025       18.5473       25.3347       4.58106             0       22.2135       1.07501             0       14.4539     -0.301321             0       21.2171             0             0      0.220003   3.49353e-09     0.0434672        111441        103429    1.9017e+06    6.4008e-09
    0.0235235       290.676        288.79        11.059       25.7657       5.41896             0        20.736       1.34285             0       17.8086       4.54426             0       22.9341             0             0       0.22283    2.2034e-09      0.031176        111445        103425   1.90068e+06   4.03705e-09
     0.024024       290.415       288.564       3.85484       26.1418       6.23666             0       19.1969       1.60593             0       21.6002       9.40444             0       24.7182             0             0      0.225556   9.72952e-10     0.0193209        111449        103420   1.89961e+06   1.78263e-09
    0.0245245       290.352       288.501       2.28464       25.4296       6.65377             0       16.4352       1.77483             0       34.0606       14.5542             0       27.8314             0             0      0.226294   9.26099e-10     0.0161127        111454        103415   1.89773e+06   1.69679e-09
     0.025025       290.295       288.441      0.780449       24.6073       7.02542             0       13.6727       1.92761             0       46.7209       19.4632             0        30.991             0             0       0.22699    9.6874e-10     0.0130881        111459        103409   1.89586e+06   1.77491e-09
    0.0255255       290.334       288.446      0.530361       21.6927       6.53333             0       10.8956       1.77433             0       63.1825       19.7979             0        35.035             0             0      0.226883   2.71176e-09     0.0135512        111455        103402   1.89423e+06   4.96845e-09
     0.026026       290.376       288.452      0.291929       18.7415       5.99729             0       8.16458       1.61083             0       79.1678        19.919             0       39.0145             0             0      0.226728   5.33696e-09     0.0142264        111452        103394   1.89273e+06   9.77831e-09
    0.0265265       290.472       288.468      0.265995        15.125       4.66003             0       6.27177       1.26102             0       86.4704       16.1475             0       41.8212             0             0      0.225683    2.4045e-08     0.0187699        111439        103386   1.89347e+06    4.4055e-08
     0.027027       290.572       288.484      0.241781       11.5797       3.31748             0       4.41093      0.905749             0       93.2024       12.3316             0       44.5615             0             0      0.224518   5.14146e-08     0.0238355        111427        103378   1.89427e+06   9.42011e-08
    0.0275275       290.727       288.499      0.247717       9.28183       1.88237             0       3.10994      0.454723             0       89.9371       7.73804             0       46.1386             0             0      0.221248   2.30521e-07     0.0380487        111404        103370   1.89606e+06   4.22358e-07
     0.028028       290.882       288.514      0.253584       7.10754      0.473554             0       1.83373    0.00397536             0        86.461       3.19366             0       47.6516             0             0       0.21798    4.3788e-07     0.0522556        111382        103362   1.89779e+06   8.02277e-07
    0.0285285       291.027       288.525       0.25831       7.01589     -0.491941             0      0.975437     -0.442071             0       79.4299     -0.522032             0       48.0846             0             0      0.214735   1.12148e-06     0.0663573        111357        103355   1.89861e+06   2.05477e-06
     0.029029       291.176       288.536      0.263176       7.00106      -1.44825             0      0.130184     -0.884339             0       72.3986      -4.14115             0       48.4511             0             0      0.211662   1.86814e-06     0.0797104        111333        103348    1.8992e+06   3.42279e-06
    0.0295295       291.384       288.544      0.270305       8.23393      -2.25539             0     -0.503252      -1.26523             0       65.3622      -6.19164             0       47.7376             0             0      0.211383   3.63887e-06     0.0809074        111315        103342    1.8962e+06   6.66709e-06
      0.03003         291.6       288.552      0.278616       9.47866      -3.07388             0      -1.12945       -1.6427             0       58.3932      -8.15968             0       46.9713             0             0      0.211166   5.44742e-06      0.081832        111298        103337   1.89288e+06   9.98069e-06
    0.0305305       291.943       288.562      0.305456       10.9091      -4.07015             0      -1.64232      -1.96664             0       52.4783        -8.836             0       45.3781             0             0      0.211929   7.84853e-06     0.0784888        111289        103333   1.88433e+06     1.438e-05
     0.031031       292.294       288.572      0.333773       12.3263      -5.07415             0      -2.15004      -2.28546             0       46.7202      -9.45288             0       43.7521             0             0      0.212661   1.02772e-05     0.0752841        111279        103330   1.87545e+06   1.88297e-05
    0.0315315       292.753       288.584      0.384451       13.5416      -6.19515             0      -2.57997      -2.52655             0       43.3322      -9.17045             0        41.629             0             0      0.212909   1.31223e-05      0.074175        111267        103328   1.86137e+06   2.40424e-05
     0.032032       293.218       288.597      0.435987       14.7238      -7.31913             0      -3.00161      -2.76264             0       40.0944       -8.8654             0       39.4965             0             0      0.213152   1.60161e-05     0.0730873        111255        103327   1.84708e+06   2.93444e-05
    0.0325325       293.779       288.608      0.500076       15.4228      -8.48674             0      -3.30194      -2.92546             0        39.051       -8.2294             0       37.2258             0             0      0.213322   1.96223e-05     0.0723117        111229        103328   1.82959e+06   3.59517e-05
     0.033033       294.339       288.618      0.563757        16.066      -9.64539             0       -3.5928       -3.0833             0       38.0541      -7.58668             0       34.9595             0             0      0.213495   2.32247e-05     0.0715248        111202        103329   1.81212e+06    4.2552e-05
    0.0335335       294.887       288.626      0.621662       15.9207      -10.6773             0       -3.7497      -3.17061             0        37.716      -6.84865             0       32.7539             0             0      0.213704   2.67728e-05     0.0705775        111160        103331   1.79474e+06   4.90528e-05
     0.034034       295.428       288.634      0.678117        15.725      -11.6945             0      -3.89785      -3.25434             0       37.3526      -6.10101             0       30.5637             0             0      0.213919    3.0232e-05     0.0696098        111118        103333   1.77762e+06   5.53907e-05
    0.0345345       295.879       288.639      0.714686       14.8387      -12.5106             0      -3.92605      -3.28906             0       36.6413      -5.22159             0        28.586             0             0        0.2142   3.24717e-05     0.0683621        111073        103336   1.76399e+06   5.94942e-05
     0.035035       296.311       288.643      0.749131       13.9206      -13.3128             0      -3.94793       -3.3204             0       35.8834      -4.33245             0       26.6257             0             0      0.214501   3.45129e-05     0.0670357        111029        103339   1.75076e+06    6.3234e-05
    0.0355355       296.503       288.647      0.755349       12.5799      -13.9296             0      -3.88597      -3.30678             0       34.5051      -3.31424             0       24.8976             0             0      0.215048   3.39167e-05     0.0646626        110996        103342    1.7428e+06   6.21417e-05
     0.036036       296.671       288.651      0.759848       11.2208      -14.5387             0      -3.81806      -3.28982             0       33.0811      -2.30859             0       23.1887             0             0      0.215601   3.31312e-05     0.0622641        110964        103345   1.73531e+06   6.07025e-05
    0.0365365       296.519       288.656      0.742194       9.62479      -15.0493             0       -3.6734      -3.22987             0       31.0673      -1.46493             0       21.7269             0             0      0.216236   2.99059e-05     0.0595372        110953        103348   1.73376e+06   5.47932e-05
     0.037037       296.353       288.661      0.724682       8.00645      -15.5455             0      -3.52408      -3.16616             0       29.0323     -0.637766             0       20.2881             0             0       0.21686   2.66075e-05     0.0568603        110945        103351   1.73268e+06   4.87499e-05
    0.0375375       296.012       288.668       0.70895       6.10852      -15.8619             0      -3.31662      -3.05548             0       26.7326    -0.0169442             0       19.1369             0             0      0.217341   2.23942e-05     0.0548095        110960        103354    1.7374e+06   4.10304e-05
     0.038038       295.678       288.675      0.695876       4.19287      -16.1539             0      -3.10506       -2.9418             0       24.4729      0.600794             0       18.0056             0             0      0.217805   1.82815e-05     0.0528367        110977        103357   1.74257e+06   3.34951e-05
    0.0385385       295.422       288.686      0.715107       2.06184       -16.149             0       -2.8436      -2.79168             0       22.7004       1.18104             0       17.1149             0             0      0.218047   1.53912e-05     0.0518114        111017        103359   1.75324e+06   2.81996e-05
     0.039039       295.199       288.698      0.740754     -0.067971      -16.1184             0      -2.57916       -2.6396             0       21.0096       1.76184             0        16.234             0             0      0.218265   1.27059e-05     0.0508917        111058        103362   1.76425e+06   2.32797e-05
    0.0395395       295.368       288.714      0.842237       -2.1834      -15.7848             0      -2.27946      -2.46425             0       20.2848       2.34918             0       15.4681             0             0      0.218191    1.2444e-05     0.0512197        111113        103364   1.77945e+06   2.27997e-05
      0.04004       295.579        288.73      0.954411      -4.27798      -15.4325             0      -1.97657      -2.28845             0       19.6269        2.9278             0       14.6994             0             0      0.218101   1.23774e-05     0.0516111        111169        103366   1.79487e+06   2.26777e-05
    0.0405405       296.275       288.752       1.18953      -6.13278      -14.8661             0       -1.6369      -2.10749             0        19.738       3.40622             0       13.8991             0             0      0.217838   1.45577e-05     0.0527311        111225        103369   1.81284e+06   2.66725e-05
     0.041041       297.041       288.775       1.44847      -7.95784      -14.2932             0      -1.29368      -1.92672             0       19.8747       3.87211             0       13.0934             0             0      0.217559   1.70634e-05     0.0539166        111281        103371   1.83088e+06   3.12634e-05
    0.0415415       298.575       288.808       1.97416      -9.45001      -13.6473             0     -0.910584      -1.74799             0       20.2988       4.19771             0       12.2267             0             0      0.217103   2.32121e-05     0.0558359        111327        103374   1.84957e+06    4.2529e-05
     0.042042       300.238       288.841        2.5543        -10.92      -13.0123             0     -0.524368       -1.5703             0        20.733       4.51451             0       11.3531             0             0      0.216613   3.01435e-05     0.0578984        111371        103377   1.86822e+06   5.52285e-05
    0.0425425       303.289       288.886       3.72819      -12.1479       -12.497             0     -0.104104      -1.40402             0       21.2789       4.73539             0        10.404             0             0      0.215743   4.56095e-05     0.0615222        111400        103380   1.88634e+06   8.35652e-05
     0.043043       306.508       288.932       4.98105      -13.3745      -12.0019             0      0.316677      -1.23912             0       21.8451       4.94278             0       9.45008             0             0      0.214795   6.29596e-05     0.0654621        111427        103383   1.90431e+06   0.000115354
    0.0435435       311.516       288.981       7.07306       -14.587      -11.7211             0      0.742967      -1.08886             0       22.6268        5.0067             0       8.44567             0             0      0.213028   0.000100332     0.0727616        111442        103386   1.92073e+06   0.000183827
     0.044044       316.574       289.029       9.17977      -15.7992       -11.448             0       1.16878     -0.940073             0       23.4204       5.05275             0       7.44224             0             0      0.211201   0.000139436     0.0803058        111457        103389   1.93692e+06   0.000255473
    0.0445445       322.138       289.064       11.4388      -17.0079      -11.2554             0        1.5896     -0.806464             0       24.3375       4.91358             0       6.44903             0             0      0.208747   0.000196481     0.0903856        111469        103392   1.95082e+06    0.00035999
     0.045045       327.497       289.095        13.576      -18.1779      -11.0397             0       2.00726     -0.674629             0       25.2348       4.75135             0       5.46273             0             0       0.20632   0.000253213      0.100355        111482        103396   1.96442e+06   0.000463934
    0.0455455       330.787       289.095       14.4807      -18.9562      -10.5915             0       2.39288      -0.56072             0       25.9322       4.35608             0       4.54633             0             0      0.204157   0.000306784      0.109211        111500        103399   1.97489e+06   0.000562086