#           y             T         TMean   TPrime2Mean           U_x           U_y           U_z       UMean_x       UMean_y       UMean_z UPrime2Mea... UPrime2Mea... UPrime2Mea... UPrime2Mea... UPrime2Mea... UPrime2Mea...            O2           H2O          C3H8             p         pMean   pPrime2Mean           CO2
  1.11022e-19       290.634       288.139      0.300605         28.58  -4.33492e-15             0       23.1954  -6.30897e-16             0       13.2567  -1.11789e-15             0   7.50501e-17             0             0      0.229998   2.05221e-08   8.74888e-06        111556        103414   1.90749e+06   3.76003e-08
  0.000500501       290.645       288.146      0.315357       28.5763    -0.0613115             0       23.1947    0.00644506             0       13.2566     -0.167619             0     0.0439733             0             0      0.229993   1.28885e-07   2.88405e-05        111555        103414   1.90751e+06   2.36142e-07
     0.001001       290.655       288.154      0.332427       28.5726     -0.122503             0        23.194     0.0128899             0       13.2567     -0.335255             0      0.088061             0             0      0.229988   2.41138e-07   4.92387e-05        111554        103414   1.90753e+06    4.4181e-07
    0.0015015       290.802       288.243       1.50677        28.568     -0.123569             0       23.1984     0.0192223             0       13.3255      -0.51078             0      0.189217             0             0      0.229943   2.29418e-06   0.000222639        111548        103414   1.90739e+06   4.20337e-06
     0.002002       290.953       288.333       2.77115       28.5632     -0.124551             0       23.2027      0.025555             0       13.3945     -0.686274             0      0.290815             0             0      0.229898    4.4515e-06   0.000399064        111541        103414   1.90724e+06   8.15598e-06
    0.0025025       292.248       288.867       26.4522       28.5362     -0.104559             0       23.2051     0.0319439             0       13.5075     -0.854076             0      0.502509             0             0      0.229617   3.25729e-05    0.00132881        111527        103413   1.90747e+06   5.96795e-05
     0.003003       293.582        289.41       51.0692       28.5091    -0.0836848             0       23.2077     0.0383353             0        13.622      -1.02235             0      0.715682             0             0      0.229329    6.2449e-05    0.00227552        111514        103413    1.9077e+06   0.000114418
    0.0035035       301.454       291.339       230.754       28.4835     0.0833856             0       23.2393     0.0451288             0        14.011      -1.26939             0       1.17386             0             0      0.227708   0.000383033    0.00603141        111508        103412   1.90794e+06   0.000701788
     0.004004       309.577       293.307       434.036       28.4572      0.250474             0       23.2711     0.0520253             0       14.4011      -1.51651             0       1.63406             0             0      0.226033   0.000722569    0.00983078        111502        103412   1.90819e+06    0.00132388
    0.0045045        348.93       300.127       3563.26        28.349      0.419776             0       23.3181     0.0716893             0        14.934      -1.77406             0       2.34448             0             0      0.217569    0.00341211      0.019022        111491        103411   1.90934e+06    0.00625163
   0.00500501       391.837       307.178        7086.4        28.237      0.594689             0       23.3663     0.0923386             0       15.4823      -2.02199             0       3.06548             0             0      0.208644    0.00630873     0.0280912        111481        103410   1.91047e+06     0.0115588
   0.00550551       786.563       337.093       49606.5       27.7509       1.32513             0       23.5276      0.210537             0       17.5561      -1.31772             0       4.83351             0             0      0.154097     0.0297052     0.0250848        111479        103408   1.91052e+06     0.0544256
   0.00600601       1180.89       366.964       92127.2       27.2606       2.06294             0       23.6872      0.328563             0        19.623     -0.624807             0       6.59462             0             0     0.0996187     0.0530741      0.022063        111477        103407   1.91056e+06     0.0972416
   0.00650651       1542.32       393.255        134702       26.4248       3.40675             0        23.703      0.432342             0       21.1173     -0.866467             0       7.78673             0             0      0.050819     0.0741612     0.0177749        111481        103405   1.90924e+06      0.135877
   0.00700701       1898.58       419.203        176713       25.6151       4.72782             0       23.7144      0.534443             0       22.5991      -1.11507             0       8.95895             0             0    0.00268377     0.0949422     0.0137413        111485        103403   1.90795e+06      0.173952
   0.00750751       1890.32       421.078        179054       26.6473         4.447             0        23.425      0.518345             0       23.1957      -1.85277             0       8.73118             0             0     0.0013395      0.094159     0.0276318        111481        103402   1.90886e+06      0.172517
   0.00800801       1881.95       422.927        181329       27.7078       4.16549             0       23.1296      0.502954             0       23.8188      -2.56604             0       8.51194             0             0    1.6612e-05     0.0933585     0.0416067        111477        103401   1.90977e+06       0.17105
   0.00850851       1867.25        423.21        179562       30.5111       3.84191             0       22.4703      0.530969             0       26.0794      -1.77673             0       8.81814             0             0   8.27159e-06     0.0914955     0.0607711        111476        103401    1.9103e+06      0.167637
   0.00900901       1852.55       423.504        177803       33.3201       3.52315             0       21.8028      0.558962             0       28.3703     -0.985314             0       9.12059             0             0   8.05429e-08     0.0896344     0.0799159        111476        103400   1.91082e+06      0.164227
   0.00950951       1837.54       424.429        176397        36.437       3.46766             0       20.6896      0.585801             0       32.3139    -0.0793028             0       9.21908             0             0   3.99786e-08     0.0878739     0.0979886        111476        103400   1.91092e+06      0.161001
      0.01001       1822.42       425.378        175041       39.5481       3.41253             0       19.5763       0.61217             0       36.3013      0.833685             0       9.31291             0             0   2.23364e-10     0.0861179      0.116015        111477        103400   1.91102e+06      0.157784
    0.0105105       1802.51         427.5        176093       42.3703       3.37499             0       18.4575      0.615522             0       42.4367        2.0885             0       9.17873             0             0   1.10749e-10     0.0845853      0.131747        111480        103400   1.91106e+06      0.154976
     0.011011       1782.38       429.582        177085       45.1477        3.3362             0       17.3475      0.617646             0       48.5462       3.32206             0       9.04975             0             0   6.05247e-13     0.0830516      0.147491        111483        103400   1.91111e+06      0.152166
    0.0115115       1752.88       429.866        175403       45.9305       3.24191             0       16.6286      0.565233             0       53.5081       3.61068             0       9.15234             0             0   2.99728e-13     0.0814653      0.163773        111488        103400   1.91148e+06       0.14926
     0.012012       1722.99       430.086        173607       46.6621       3.14033             0       15.9198      0.512403             0       58.3976       3.87116             0       9.26018             0             0   1.52271e-15     0.0798601      0.180248        111493        103400   1.91187e+06      0.146319
    0.0125125       1677.03       427.717        167177       45.3078       2.74225             0       15.6201      0.442635             0        60.345       2.98777             0       9.58107             0             0   7.54421e-16     0.0774838      0.204636        111498        103400   1.91283e+06      0.141965
     0.013013       1631.06       425.318        160713       43.9336       2.34316             0       15.3267      0.372934             0       62.2387       2.10088             0       9.91176             0             0    6.0822e-18     0.0750932       0.22917        111503        103399   1.91381e+06      0.137585
    0.0135135       1584.77       421.789        152972       41.8171       1.90627             0         15.27      0.305699             0       62.1177       1.08325             0       10.6095             0             0    5.2556e-18     0.0721707      0.259165        111507        103398   1.91531e+06       0.13223
     0.014014       1539.31       418.205        145200       39.7065       1.46883             0       15.2195      0.238822             0       61.9594      0.063139             0       11.3163             0             0   5.09474e-17     0.0692845      0.288787        111512        103397   1.91682e+06      0.126942
    0.0145145       1522.52       412.706        136358       37.8011       1.01229             0       15.3789      0.184362             0       60.5049      -1.04315             0       12.3363             0             0   1.71149e-15      0.067662      0.305454        111516        103396    1.9189e+06      0.123969
     0.015015       1506.33       407.191        127544       35.9147      0.556486             0       15.5449       0.12992             0       59.0412      -2.14874             0       13.3687             0             0   2.84199e-14     0.0660891      0.321612        111520        103394   1.92099e+06      0.121088
    0.0155155       1509.55       401.145        119659       34.6402      0.124515             0       15.9231     0.0760175             0       57.2808      -3.23193             0       14.8004             0             0   8.65008e-13     0.0661237      0.321307        111522        103392   1.92345e+06      0.121151
     0.016016       1512.19       395.125        111818       33.3863     -0.310062             0       16.3085     0.0226076             0       55.5257       -4.3057             0        16.237             0             0   1.23559e-11     0.0661505      0.321083        111525        103389   1.92593e+06        0.1212
    0.0165165       1497.48       389.905        105289       32.7515     -0.823447             0       16.9108    -0.0159112             0       53.9334      -5.09431             0         17.82             0             0    3.4614e-10     0.0659412        0.3233        111527        103386   1.92913e+06      0.120816
     0.017017       1481.72       384.692       98770.3       32.1167      -1.33336             0       17.5209    -0.0527111             0       52.3668      -5.84009             0       19.4046             0             0   3.66815e-09     0.0657055      0.325787        111530        103383   1.93236e+06      0.120385
    0.0175175       1436.26       379.689       92555.1       31.4799      -1.74453             0       18.3512    -0.0406765             0         51.53      -5.36919             0       21.0308             0             0   9.18909e-08     0.0647239       0.33596        111530        103380   1.93623e+06      0.118586
     0.018018       1390.34       374.684       86345.3       30.8343      -2.15438             0       19.1771    -0.0272086             0        50.734      -4.85984             0       22.6597             0             0   4.33194e-07     0.0637086      0.346475        111531        103376   1.94014e+06      0.116726
    0.0185185       1332.01       369.607       80280.8       29.9531      -2.52873             0       19.8851     0.0246365             0       51.0283      -3.32114             0       24.3561             0             0   7.55142e-06     0.0617918      0.366151        111530        103372   1.94503e+06      0.113214
     0.019019       1274.77       364.528       74224.8       29.0882      -2.89772             0       20.5788     0.0755617             0       51.3224      -1.77742             0       26.0583             0             0   1.81164e-05     0.0598388      0.386176        111529        103368   1.94995e+06      0.109636
    0.0195195       1244.78       359.372       68383.9       28.6373      -3.13136             0       20.9116        0.1032             0       51.6118     -0.106685             0       27.9094             0             0   0.000115938     0.0569734       0.41507        111527        103363   1.95568e+06      0.104386
      0.02002       1216.28       354.231       62562.4       28.2179      -3.35373             0       21.2346      0.129965             0       51.8396       1.55514             0       29.7738             0             0   0.000212437     0.0541451      0.443587        111526        103358   1.96143e+06     0.0992039
    0.0205205       1223.44       349.466       57203.8       28.5562      -3.30586             0       21.3214      0.135765             0        50.587       3.00315             0       31.9614             0             0   0.000277185     0.0522085      0.463096        111527        103354   1.96787e+06     0.0956557
     0.021021        1230.8       344.742       51887.8        28.894      -3.25448             0       21.4005      0.140725             0       49.2749       4.43759             0       34.1599             0             0   0.000335227     0.0503382      0.481954        111528        103349   1.97432e+06      0.092229
    0.0215215       1242.76       340.975       47545.4       29.2221      -3.12291             0       21.3024      0.126545             0       46.6074       5.56265             0       36.6084             0             0   0.000240311     0.0499808      0.485994        111532        103344   1.98107e+06     0.0915742
     0.022022       1253.85       337.252       43257.2       29.5448      -2.99975             0       21.1947       0.11089             0       43.9153       6.67204             0       39.0624             0             0   0.000146423     0.0496461      0.489798        111535        103339   1.98782e+06     0.0909608
    0.0225225       1246.22        334.48       40145.7       29.7512      -3.05928             0       20.8787     0.0631941             0       40.6926       7.44077             0       41.6351             0             0   7.48849e-05     0.0498032      0.488479        111539        103333   1.99471e+06     0.0912488
     0.023023        1237.7       331.747       37088.2       29.9197      -3.09807             0       20.5512     0.0136619             0       37.5009       8.19274             0       44.2096             0             0   7.11799e-06     0.0499713      0.487032        111543        103328   2.00159e+06     0.0915568
    0.0235235       1210.63       329.837         35152       29.3012      -2.70674             0       19.9848    -0.0739536             0       34.9512       8.59722             0       46.8207             0             0   1.75725e-05      0.050367      0.482917        111552        103323   2.00844e+06     0.0922818
     0.024024       1183.76       327.965       33269.1       28.6535      -2.29472             0       19.4148     -0.163495             0       32.4784       8.99516             0       49.4343             0             0   5.65632e-05     0.0507752      0.478551        111561        103318    2.0153e+06     0.0930295
    0.0245245       1160.86       326.842       32443.7        27.426      -1.47248             0       18.7744     -0.291239             0       31.5278       9.26365             0       52.0976             0             0   0.000661524     0.0514307      0.469188        111569        103313   2.02235e+06     0.0942306
     0.025025        1139.9       325.747       31660.4       26.2459     -0.648796             0       18.1388     -0.420154             0       30.6093       9.53795             0       54.7666             0             0    0.00125302     0.0521142      0.459596        111576        103309   2.02943e+06      0.095483
    0.0255255       1155.73        325.18       31678.9       25.9669      0.202252             0       17.5953     -0.571297             0       30.3013       9.92271             0       57.5442             0             0    0.00158871     0.0533298      0.445657        111587        103304   2.03707e+06     0.0977101
     0.026026        1173.8       324.628       31724.9       25.7331        1.0206             0       17.0528     -0.723465             0       29.9755       10.3045             0       60.3249             0             0    0.00187624      0.054625       0.43111        111597        103299   2.04474e+06      0.100083
    0.0265265       1232.58       324.345       32272.4       26.3249       1.24277             0       16.5298     -0.894322             0       29.3267       10.6317             0       63.1622             0             0    0.00128593     0.0573714      0.405482        111606        103293   2.05288e+06      0.105115
     0.027027       1291.81       324.067         32831       26.9472       1.44944             0       16.0013      -1.06653             0       28.6632       10.9439             0       65.9988             0             0   0.000708705     0.0601518      0.379449        111615        103287   2.06103e+06      0.110209
    0.0275275       1358.78       323.881       33582.5       28.1018       1.38472             0       15.3764      -1.26246             0       27.7415       10.9949             0       68.8207             0             0   0.000360836      0.063527      0.346311        111617        103281   2.06943e+06      0.116393
     0.028028       1424.75       323.693       34328.8       29.2321       1.33848             0       14.7465       -1.4596             0       26.8233       11.0344             0       71.6305             0             0   3.16303e-05     0.0668537       0.31359        111619        103274   2.07781e+06      0.122489
    0.0285285       1473.95       323.478       34985.7       29.9533       1.60391             0       14.0306      -1.67723             0       25.9632       10.8791             0       74.2367             0             0   1.70301e-05     0.0693614      0.287908        111619        103268   2.08587e+06      0.127083
     0.029029       1522.04       323.261       35638.9       30.6452         1.897             0       13.3114      -1.89523             0       25.1413       10.7272             0       76.8192             0             0    3.2921e-06      0.071828      0.262644        111620        103261   2.09389e+06      0.131602
    0.0295295       1552.06       323.005       36230.4       30.8607       2.63943             0       12.5357      -2.11915             0       24.9384       10.6315             0       79.0185             0             0   3.55799e-06     0.0736269      0.244174        111614        103254   2.10124e+06      0.134898
      0.03003       1582.18       322.744         36821       31.0736       3.40181             0       11.7571      -2.34268             0       24.7993       10.5574             0       81.1826             0             0    3.8873e-06     0.0754115      0.225851        111608        103248   2.10854e+06      0.138168
    0.0305305       1613.84       322.413       37396.8       31.2478       4.47665             0       10.9313      -2.56011             0       25.6603       10.8231             0       82.7963             0             0   5.21033e-06     0.0769711      0.209836        111599        103242   2.11488e+06      0.141025
     0.031031       1646.51       322.072       37957.7       31.4081       5.54538             0        10.101      -2.77649             0       26.5651       11.1095             0       84.3692             0             0   6.53851e-06     0.0785408      0.193719        111589        103236   2.12114e+06      0.143901
    0.0315315       1694.46       321.571       38293.6       31.3581        6.5216             0       9.20296      -2.97699             0       28.1337       11.7108             0       85.3237             0             0   7.94449e-06     0.0802617      0.176052        111579        103231   2.12603e+06      0.147054
     0.032032       1741.89       321.056       38594.5       31.2682       7.54101             0       8.30213      -3.17646             0       29.7196       12.3243             0       86.2429             0             0   9.18053e-06     0.0819601      0.158619        111568        103226   2.13084e+06      0.150166
    0.0325325       1781.87        320.33       38382.4       30.5951       9.19214             0       7.36037      -3.36074             0       31.5601       13.1169             0       86.6452             0             0   7.93123e-06     0.0833287      0.144586        111555        103222   2.13422e+06      0.152674
     0.033033       1820.56       319.592       38133.1       29.9385       10.8242             0       6.41858      -3.54394             0       33.3987       13.9065             0       87.0121             0             0   6.57172e-06     0.0846524      0.131016        111542        103218   2.13758e+06      0.155099
    0.0335335       1841.13       318.687       37356.6       29.5147       12.1861             0        5.4763      -3.71193             0       35.2113       14.6545             0       86.8772             0             0   3.65255e-06     0.0853397      0.123988        111536        103215   2.14058e+06      0.156358
     0.034034       1861.09       317.778       36564.4       29.1792       13.5216             0        4.5346      -3.87858             0       36.9811       15.3874             0       86.7116             0             0   9.01522e-07     0.0860153      0.117079        111530        103212   2.14357e+06      0.157596
    0.0345345        1872.5       316.824       35557.1       30.0536       14.4938             0       3.60084      -4.02682             0       38.1634       15.9131             0       86.1257             0             0   4.54933e-07     0.0865304      0.111801        111527        103211   2.14648e+06       0.15854
     0.035035       1883.25       315.873       34550.5       30.9467       15.4609             0        2.6672      -4.17363             0       39.2729       16.4122             0       85.5074             0             0   3.85698e-08     0.0870428      0.106548        111525        103209   2.14932e+06      0.159479
    0.0355355       1885.28        314.96       33553.4       32.0893       16.3594             0       1.73515       -4.3014             0       39.4154        16.558             0         84.46             0             0   2.37628e-08     0.0875207      0.101637        111526        103209   2.15121e+06      0.160354
     0.036036       1887.22       314.047       32551.7       33.1599        17.209             0      0.802657      -4.42823             0       39.5015       16.6622             0       83.3649             0             0   1.00438e-08     0.0880107      0.096601        111527        103209   2.15302e+06      0.161252
    0.0365365       1888.09       313.141         31492       33.3017       17.4278             0     -0.135447      -4.54274             0       38.8601       16.2288             0       81.6559             0             0   1.03472e-08     0.0886567     0.0899593        111531        103210    2.1536e+06      0.162436
     0.037037       1889.03        312.23       30417.3       33.3279       17.6087             0      -1.07331      -4.65593             0       38.2256       15.7664             0       79.8917             0             0   1.04794e-08     0.0893052     0.0832929        111536        103212   2.15403e+06      0.163624
    0.0375375       1890.98       311.263       29154.3       31.9076       17.3145             0      -2.00819      -4.75249             0       37.6796       14.9406             0       77.4363             0             0   8.47103e-09     0.0899841     0.0763173        111537        103215   2.15258e+06      0.164868
     0.038038       1892.97       310.287       27870.1       30.4492       16.9683             0      -2.94079      -4.84683             0       37.2104       14.1204             0       74.9272             0             0   6.40081e-09     0.0906433     0.0695465        111539        103218     2.151e+06      0.166075
    0.0385385       1895.42       309.203       26327.8       28.5263       15.9891             0      -3.84585      -4.91413             0       37.6763       13.3691             0       71.7651             0             0   3.57932e-09     0.0910607     0.0652653        111539        103223    2.1478e+06       0.16684
     0.039039       1897.25       308.111       24766.5       26.6111       14.9776             0      -4.74555      -4.97804             0        38.249       12.6548             0       68.5656             0             0   9.43504e-10     0.0914104     0.0616799        111538        103228    2.1445e+06      0.167481
    0.0395395        1891.8       306.911       22980.9       24.7864       13.5846             0      -5.58186      -5.00185             0       40.0845       12.3786             0       64.9234             0             0   5.02569e-10     0.0909592     0.0663203        111538        103235   2.13995e+06      0.166654
      0.04004       1884.24       305.708       21189.2       22.9144       12.2179             0      -6.40892      -5.02139             0       42.0223       12.1498             0       61.2599             0             0   9.40712e-11     0.0904156     0.0719094        111538        103242   2.13534e+06      0.165658
    0.0405405       1852.62        304.46         19326       20.4981       11.1536             0      -7.12952      -4.99176             0       45.1373       12.4649             0       57.3516             0             0   5.86113e-11      0.088809     0.0884076        111538        103251   2.12997e+06      0.162715
     0.041041       1819.02       303.218       17478.2       18.0505        10.135             0      -7.83694      -4.95726             0       48.3257       12.8146             0       53.4307             0             0   2.51651e-11     0.0871543      0.105399        111539        103259   2.12455e+06      0.159683
    0.0415415       1763.25       302.038       15802.5       15.2526       9.62774             0      -8.39696      -4.86827             0       52.3368       13.5496             0       49.3703             0             0   1.42623e-11     0.0849619      0.127906        111543        103269   2.11861e+06      0.155666
     0.042042       1708.41       300.868       14148.3       12.5578       9.11694             0      -8.94139      -4.77404             0       56.3767       14.2936             0       45.3099             0             0   1.03427e-11     0.0828307      0.149787        111547        103278   2.11266e+06      0.151761
    0.0425425        1663.6       299.794       12729.2        10.987       8.56709             0       -9.3159      -4.62266             0       60.7304       15.1344             0       41.2494             0             0   8.25719e-11     0.0813658       0.16483        111551        103287   2.10662e+06      0.149077
     0.043043       1620.91       298.721       11315.3       9.61991       7.97753             0      -9.67498      -4.46564             0       65.0723       15.9503             0       37.2049             0             0   5.85457e-09     0.0800172      0.178679        111556        103297    2.1006e+06      0.146606
    0.0435435       1600.71       297.657       9956.16       10.4185       6.96598             0         -9.87      -4.24873             0       69.2881       16.5011             0       33.3303             0             0   7.22032e-08     0.0799042      0.179848        111566        103305   2.09483e+06      0.146399
     0.044044       1579.43       296.565       8557.48       11.2455       5.90172             0      -10.0506      -4.02648             0       73.4861       17.0204             0       29.4857             0             0   5.50843e-06     0.0798345      0.180555        111576        103314   2.08911e+06      0.146272
    0.0445445       1546.81       295.197       6748.58       12.3669       4.29104             0      -10.0819      -3.74894             0       77.5005       17.2144             0       25.9523             0             0   6.65961e-05     0.0802141      0.176473        111588        103322   2.08394e+06      0.146967
     0.045045       1495.23       293.814       4942.04       13.3528       2.75823             0      -10.0998      -3.46712             0       81.5543       17.3792             0       22.4522             0             0    0.00287472     0.0792742      0.173984        111601        103331   2.07885e+06      0.145245
    0.0455455       1251.82       292.286       3159.32       12.9685       2.01278             0      -9.98266      -3.14197             0       86.0055       17.2483             0       19.2876             0             0     0.0334584      0.064993      0.187596        111614        103338   2.07465e+06      0.119079