#           y             T         TMean   TPrime2Mean           U_x           U_y           U_z       UMean_x       UMean_y       UMean_z UPrime2Mea... UPrime2Mea... UPrime2Mea... UPrime2Mea... UPrime2Mea... UPrime2Mea...            O2           H2O          C3H8             p         pMean   pPrime2Mean           CO2
  1.11022e-19       295.647       288.359       1.18471       42.4735  -1.03544e-17             0        18.008   5.37911e-18             0       56.6499  -2.77783e-17             0   2.50527e-17             0             0      0.227916   0.000662721    0.00225485        110869        103434   1.55296e+06    0.00121423
  0.000500501       307.581       288.558       10.7301       42.8955     -0.046679             0       18.0165     0.0242496             0         56.77     -0.125227             0       0.11294             0             0      0.225252    0.00171216    0.00306595        110863        103434   1.55322e+06    0.00313699
     0.001001       319.647       288.759        20.809       43.3207     -0.093298             0       18.0251     0.0485019             0       56.8921     -0.250393             0      0.226125             0             0      0.222569     0.0027697    0.00387674        110857        103434   1.55348e+06     0.0050746
    0.0015015       397.498       290.055       297.088       45.3511     -0.110018             0       18.0541      0.074089             0       57.9561     -0.344501             0      0.461104             0             0      0.210369      0.007873    0.00453061        110842        103434   1.55359e+06     0.0144248
     0.002002       476.037       291.375       607.608       47.3946     -0.126339             0       18.0831     0.0997024             0       59.0326     -0.437799             0      0.696595             0             0      0.198116         0.013    0.00517637        110827        103433    1.5537e+06     0.0238183
    0.0025025       725.839       298.852       9444.08       52.7417    -0.0433483             0       18.1323      0.131897             0       63.2618     -0.329035             0       1.05969             0             0      0.172421     0.0240169    0.00380376        110819        103433   1.55425e+06     0.0440035
     0.003003       976.027       306.344       18323.1        58.104     0.0398021             0       18.1816      0.164135             0       67.5249     -0.217991             0       1.42355             0             0      0.146703      0.035044     0.0024321        110811        103432   1.55479e+06     0.0642071
    0.0035035       1290.16       316.335       34258.5       65.9825      0.149372             0        18.256      0.203384             0       77.4137      0.270938             0       1.91371             0             0         0.117     0.0477437    0.00121735        110815        103432   1.55502e+06     0.0874754
     0.004004       1602.89       326.288       50150.4       73.8486      0.257984             0       18.3304      0.242677             0       87.3394      0.762244             0       2.40493             0             0     0.0873047     0.0604374    2.7989e-05        110819        103431   1.55526e+06      0.110733
    0.0045045       1742.64       331.511       60659.6       80.1619      0.247812             0       18.4132      0.287314             0       101.839       1.54847             0       3.02636             0             0     0.0586607     0.0723793    0.00198565        110823        103431   1.55572e+06      0.132612
   0.00500501       1881.02         336.7       71092.9       86.4348      0.237557             0       18.4956      0.331906             0       116.327       2.33506             0       3.64892             0             0     0.0301518     0.0842543    0.00404238        110827        103430   1.55618e+06       0.15437
   0.00550551        1883.4        338.49       74017.6       88.7033      0.219215             0       18.5482       0.37196             0       129.583       3.15761             0       4.38419             0             0     0.0150182     0.0895084     0.0159078        110833        103429   1.55661e+06      0.163996
   0.00600601       1885.44       340.255       76885.7       90.9401      0.201185             0          18.6      0.411812             0       142.755       3.97093             0       5.11943             0             0   6.59064e-05     0.0946751     0.0278832        110839        103429   1.55704e+06      0.173462
   0.00650651       1860.18       339.961       75094.6       90.5691      0.208799             0       18.5883      0.434981             0        149.05       4.02458             0       5.85217             0             0   3.27631e-05     0.0926412     0.0489085        110847        103428   1.55748e+06      0.169736
   0.00700701       1834.78       339.657       73285.7       90.1902      0.215111             0       18.5762      0.457986             0       155.263       4.07098             0       6.58555             0             0   8.32156e-08     0.0906079     0.0699259        110856        103427   1.55791e+06       0.16601
   0.00750751       1798.79       338.652       70225.5       89.2551      0.129771             0       18.5283      0.469343             0       155.754       3.60638             0       7.36356             0             0   4.13139e-08     0.0886151     0.0903874        110867        103426   1.55836e+06      0.162359
   0.00800801       1762.95       337.647         67173       88.3178     0.0424181             0       18.4804      0.480724             0       156.205       3.14114             0       8.14377             0             0   8.19495e-11     0.0866319       0.11075        110879        103425   1.55881e+06      0.158726
   0.00850851       1736.08       336.677       64596.7       87.2446     -0.168694             0       18.4305      0.493587             0        154.21       2.63694             0        9.0591             0             0   4.06388e-11     0.0852397      0.125044        110892        103424   1.55948e+06      0.156175
   0.00900901       1709.59       335.719       62040.3       86.1679     -0.380702             0       18.3804      0.506614             0       152.219       2.13428             0       9.97668             0             0   7.11396e-14     0.0838646      0.139163        110905        103423   1.56016e+06      0.153656
   0.00950951       1703.52       335.381       60575.2       84.9028     -0.641517             0       18.3179       0.52859             0       150.379       1.71601             0       11.0175             0             0    3.5241e-14      0.083419      0.143737        110917        103422   1.56121e+06      0.152839
      0.01001       1697.85       335.054       59130.6        83.637     -0.904114             0       18.2544      0.550798             0       148.545        1.3028             0       12.0599             0             0   5.96807e-17     0.0829902      0.148137        110930        103421   1.56226e+06      0.152054
    0.0105105       1712.23       335.272       58688.4       82.3345      -1.25397             0       18.1434      0.584405             0        146.99       1.13783             0       13.1819             0             0   2.95353e-17     0.0833896      0.144032        110939        103420   1.56341e+06      0.152785
     0.011011       1726.84       335.483       58243.6       81.0347      -1.60413             0       18.0307      0.618132             0       145.406      0.978405             0       14.3044             0             0   5.25676e-20     0.0837974       0.13984        110948        103418   1.56458e+06      0.153533
    0.0115115       1751.73       335.403       57677.6       79.8525      -1.96806             0       17.8418      0.657177             0       142.539       1.06499             0       15.4456             0             0   2.59895e-20     0.0845826      0.131775        110952        103417   1.56615e+06      0.154971
     0.012012       1776.63       335.307       57093.6       78.6949      -2.32945             0       17.6508      0.696189             0       139.641       1.15367             0       16.5867             0             0   4.86072e-23      0.085367      0.123719        110956        103415   1.56772e+06      0.156408
    0.0125125       1801.39       334.549         55773       78.5322      -2.58774             0       17.3759      0.733837             0       135.474       1.32771             0       17.7225             0             0   2.40078e-23     0.0861162      0.116025        110956        103413   1.56946e+06      0.157781
     0.013013       1826.02       333.787       54464.1       78.4173      -2.83955             0       17.0991      0.771319             0       131.314       1.49979             0       18.8576             0             0   4.73442e-26     0.0868605      0.108383        110955        103412   1.57121e+06      0.159145
    0.0135135       1845.67       332.896       53596.6       80.0925      -2.84828             0       16.7496       0.80256             0        127.46       1.59856             0       19.9627             0             0   2.33628e-26      0.087419       0.10265        110951        103410   1.57315e+06      0.160168
     0.014014       1865.14       332.026         52779       81.7699      -2.85686             0       16.3998      0.833472             0       123.705       1.69867             0       21.0669             0             0     5.219e-29      0.087974     0.0969525        110947        103408    1.5751e+06      0.161185
    0.0145145       1877.99       331.855       53692.1       83.5274      -2.86057             0       16.0372      0.852995             0       123.395       1.84538             0       22.1386             0             0   2.57312e-29     0.0884077     0.0925007        110941        103406   1.57739e+06      0.161979
     0.015015       1890.59       331.706       54650.3       85.2154      -2.87082             0       15.6755      0.871874             0       123.208       1.98585             0       23.2091             0             0   6.50779e-32     0.0888398     0.0880647        110934        103405   1.57968e+06      0.162771
    0.0155155       1895.23       332.279       57063.5       84.6572      -3.09258             0       15.3408      0.869961             0       127.013       1.92422             0       24.2461             0             0   3.20542e-32     0.0892221     0.0841385        110926        103403   1.58229e+06      0.163472
     0.016016       1899.72       332.853       59472.7       84.0399      -3.31613             0       15.0066      0.867469             0       130.855       1.85648             0       25.2831             0             0   8.58586e-35      0.089603     0.0802278        110919        103401    1.5849e+06      0.164169
    0.0165165       1899.86       333.441       61760.9       81.6347      -3.59398             0       14.6885      0.847461             0       135.801       1.60364             0       26.3228             0             0   4.22449e-35     0.0899383     0.0767838        110911        103400   1.58744e+06      0.164784
     0.017017       1899.99       334.013       64005.7       79.2388      -3.86907             0       14.3704      0.827102             0       140.663       1.34531             0       27.3629             0             0   1.12105e-37      0.090272     0.0733568        110904        103398   1.58998e+06      0.165395
    0.0175175       1899.99       334.132       65015.5       77.1061      -4.06605             0       14.0494      0.796768             0       143.124      0.931197             0       28.4107             0             0   5.51006e-38     0.0905585     0.0704129        110897        103397   1.59249e+06       0.16592
     0.018018       1899.98        334.24       65993.6        75.026      -4.25842             0       13.7282      0.766477             0       145.442      0.520606             0       29.4582             0             0   1.45587e-40     0.0908445      0.067475        110891        103395   1.59499e+06      0.166444
    0.0185185       1899.98       334.058       66123.3       74.3542      -4.32759             0       13.4003      0.737335             0       143.906      0.204354             0       30.4979             0             0   7.14784e-41     0.0911149     0.0646972        110885        103394   1.59752e+06      0.166939
     0.019019       1899.98        333.87       66237.7       73.7286      -4.39388             0       13.0724      0.708188             0       142.253     -0.112116             0       31.5385             0             0   1.81967e-43     0.0913862     0.0619097        110879        103392   1.60005e+06      0.167437
    0.0195195       1899.98       333.547       65965.2       74.2771      -4.38747             0       12.7442      0.678891             0       137.646      -0.43411             0       32.5996             0             0   8.92406e-44     0.0916817     0.0588745        110873        103391   1.60267e+06      0.167978
      0.02002       1899.97       333.213         65670       74.8403      -4.38089             0       12.4165      0.649564             0       133.015     -0.757136             0        33.664             0             0   2.19079e-46     0.0919775     0.0558362        110868        103390   1.60528e+06       0.16852
    0.0205205       1899.97       332.632       64829.8       75.7593      -4.37046             0       12.1008       0.61952             0       127.828      -1.10494             0       34.8065             0             0   1.07329e-46     0.0922805     0.0527251        110862        103388   1.60764e+06      0.169075
     0.021021       1899.97       332.026       63948.1       76.6609      -4.35816             0       11.7853      0.589461             0       122.655      -1.45313             0       35.9509             0             0   2.66622e-49     0.0925818     0.0496312        110857        103387   1.60999e+06      0.169627
    0.0215215       1899.95       330.855       62116.8       77.1641      -4.30321             0       11.4755       0.55906             0       117.808      -1.81034             0       37.1384             0             0   1.30492e-49     0.0928447     0.0469315        110852        103386   1.61204e+06      0.170109
     0.022022       1899.93       329.669         60261       77.6066      -4.24532             0       11.1653      0.528765             0       112.943      -2.15831             0       38.3224             0             0   3.47063e-52     0.0931039      0.044271        110847        103385    1.6141e+06      0.170584
    0.0225225       1899.93       328.135       57871.7       76.7328       -4.1236             0       10.8453      0.500763             0       107.696      -2.30556             0       39.4277             0             0   2.34559e-52     0.0932802     0.0424609        110842        103384   1.61621e+06      0.170907
     0.023023       1899.94       326.598       55474.6       75.7783      -4.00288             0       10.5248      0.472578             0       102.443      -2.45237             0        40.529             0             0   3.86393e-52     0.0934502     0.0407158        110838        103383    1.6183e+06      0.171218
    0.0235235       1899.95       325.001       52914.5       73.1524      -3.90293             0       10.1967      0.440583             0       97.0536      -2.58994             0       41.5444             0             0   6.02036e-51     0.0934889     0.0403189        110834        103382   1.61988e+06      0.171289
     0.024024       1899.97       323.396       50337.4       70.5003       -3.8079             0       9.86816      0.408328             0       91.6284      -2.72036             0       42.5496             0             0   5.39882e-50     0.0935206     0.0399934        110831        103381   1.62144e+06      0.171347
    0.0245245       1899.97       321.644         47422       67.3277      -3.81047             0       9.53318      0.370907             0       85.4845      -2.70894             0       43.3518             0             0   9.41578e-49     0.0934143     0.0410845        110827        103381   1.62272e+06      0.171152
     0.025025       1899.97       319.868       44485.1        64.209      -3.81299             0       9.19841      0.333441             0       79.3187       -2.6808             0       44.1417             0             0   8.65975e-48     0.0933076     0.0421797        110823        103380   1.62394e+06      0.170957
    0.0255255       1899.97       317.625         41140        62.113      -3.81448             0        8.8678      0.295087             0       72.7356      -2.33493             0       44.6961             0             0   1.46159e-46     0.0931934     0.0433509        110819        103380   1.62391e+06      0.170748
     0.026026       1899.97       315.395       37841.8       60.1144      -3.81114             0       8.53877      0.256484             0       66.2301      -1.99645             0       45.2417             0             0   2.01484e-45     0.0930896     0.0444162        110815        103380   1.62386e+06      0.170557
    0.0265265       1899.98       313.412       35398.7       59.8904       -3.7196             0       8.23861      0.213338             0       61.1376      -1.79288             0       45.6274             0             0   3.54443e-44      0.093174     0.0435485        110811        103380   1.62348e+06      0.170712
     0.027027       1899.98       311.484       33030.3       59.7649      -3.62018             0       7.94181       0.17005             0       56.2007      -1.60096             0       46.0048             0             0   4.31302e-43     0.0932733     0.0425297        110807        103380   1.62311e+06      0.170894
    0.0275275       1899.98       310.532       31969.7       61.3629       -3.3826             0       7.70387      0.124286             0       53.9873      -1.61321             0       46.2358             0             0   7.17637e-42     0.0936303     0.0388641        110802        103380   1.62292e+06      0.171548
     0.028028       1899.98       309.606       30926.9       62.9707      -3.14219             0       7.46943     0.0784346             0       51.9248      -1.63866             0       46.4625             0             0   5.14732e-41     0.0939858     0.0352135        110798        103380   1.62266e+06        0.1722
    0.0285285       1899.98       309.135       30183.5       64.7404      -2.85407             0       7.29409     0.0311167             0       52.4077      -1.88679             0       46.6159             0             0   7.28786e-40     0.0943168     0.0318156        110793        103380   1.62117e+06      0.172806
     0.029029       1899.98       308.677       29459.5       66.4077        -2.577             0       7.12039    -0.0160942             0       52.9348      -2.13625             0       46.7603             0             0   3.87089e-39     0.0946352      0.028547        110788        103381   1.61964e+06      0.173389
    0.0295295       1899.98       308.448       29052.3       66.4107      -2.47926             0       6.97326     -0.061567             0       54.1811      -2.40724             0       46.7581             0             0   4.70446e-38     0.0947491     0.0273778        110784        103381   1.61763e+06      0.173598
      0.03003       1899.97        308.23       28665.8       66.3925        -2.384             0       6.82684     -0.106895             0       55.4253      -2.68106             0         46.74             0             0   2.37306e-37     0.0948579     0.0262612        110779        103382   1.61559e+06      0.173797
    0.0305305       1899.97       308.166       28603.6       66.0415      -2.32745             0       6.69147     -0.149961             0       56.6362      -2.99901             0       46.4731             0             0   2.73194e-36     0.0948864     0.0259697        110774        103383   1.61311e+06       0.17385
     0.031031       1899.97        308.11       28554.5       65.7125      -2.26571             0       6.55658      -0.19252             0       57.8487      -3.31479             0       46.1869             0             0   2.47268e-35     0.0949084     0.0257437        110769        103384   1.61064e+06       0.17389
    0.0315315       1899.97       308.155       28704.4       65.7153      -2.12533             0       6.42885     -0.227425             0       59.0847      -3.59752             0       45.6065             0             0   3.41741e-34     0.0948337     0.0265107        110764        103385   1.60824e+06      0.173753
     0.032032       1899.97         308.2       28854.9       65.6879      -1.98851             0       6.30214     -0.261537             0       60.3136      -3.87567             0        45.006             0             0   8.56753e-33     0.0947477     0.0273942        110759        103386   1.60583e+06      0.173595
    0.0325325       1899.97       308.252       29015.4       65.2184      -1.90396             0       6.19034     -0.284068             0       61.4404      -4.08681             0       44.1108             0             0   1.32459e-31     0.0944958     0.0299806        110754        103388   1.60329e+06      0.173134
     0.033033       1899.97       308.298       29166.2       64.7445      -1.81903             0       6.08067     -0.305809             0       62.5537      -4.29658             0       43.2001             0             0   4.61026e-30     0.0942395     0.0326118        110749        103389   1.60075e+06      0.172664
    0.0335335       1899.97       308.268       29179.1       64.2089      -1.72884             0         6.001     -0.316376             0       63.4749      -4.48694             0       42.0687             0             0   7.07025e-29     0.0939216     0.0358763        110743        103391   1.59829e+06      0.172082
     0.034034       1899.97       308.233       29181.8       63.6689      -1.64215             0       5.92424     -0.326415             0       64.3928      -4.67704             0       40.9271             0             0   2.57878e-27     0.0936034     0.0391431        110737        103392   1.59583e+06      0.171499
    0.0345345       1899.96       308.123       29044.8       63.0699      -1.60341             0        5.8872      -0.32923             0       65.2643      -4.86374             0       39.6461             0             0   3.85564e-26     0.0932822     0.0424409        110729        103394   1.59327e+06       0.17091
     0.035035       1899.95       308.009       28900.4       62.4693        -1.567             0       5.85323     -0.331929             0       66.1308       -5.0487             0       38.3587             0             0   1.40596e-24     0.0929583     0.0457671        110722        103396    1.5907e+06      0.170317
    0.0355355       1899.94       307.842       28657.2       61.8474      -1.56159             0       5.85995     -0.333076             0       66.9316      -5.21059             0       36.9853             0             0   2.04624e-23     0.0925977     0.0494702        110715        103398   1.58805e+06      0.169656
     0.036036       1899.94       307.674       28410.7       61.2253       -1.5607             0       5.86914     -0.334033             0       67.7335       -5.3718             0        35.608             0             0   7.30899e-22       0.09224     0.0531441        110709        103400    1.5854e+06      0.169001
    0.0365365       1899.95       307.491       28122.9       60.6005      -1.61803             0       5.91017     -0.332553             0       68.5497      -5.52416             0       34.1801             0             0   1.03525e-20      0.091919     0.0564409        110704        103401   1.58263e+06      0.168413
     0.037037       1899.95       307.315         27843       59.9805      -1.67945             0       5.95294     -0.330569             0       69.3899      -5.68043             0       32.7498             0             0   2.64725e-19     0.0916054      0.059661        110699        103403   1.57986e+06      0.167838
    0.0375375       1899.96       307.219       27662.9       59.4207      -1.79204             0       6.01748     -0.322285             0       70.5303      -5.88548             0       31.2884             0             0   3.58179e-18     0.0913857     0.0619197        110699        103405   1.57711e+06      0.167436
     0.038038        1899.9       307.127       27489.6       58.8721      -1.91822             0       6.08399     -0.313603             0       71.6966      -6.09526             0        29.826             0             0   7.39455e-17      0.091174     0.0640969        110699        103407   1.57435e+06      0.167048
    0.0385385        1899.1       307.088       27399.1       58.4581      -2.20983             0       6.17456     -0.300088             0       73.1776      -6.36263             0       28.3515             0             0   9.59455e-16     0.0910594     0.0652816        110703        103409   1.57142e+06      0.166838
     0.039039       1897.96       307.037       27287.1        58.063      -2.50921             0       6.26699     -0.286623             0       74.6289      -6.64181             0       26.8775             0             0   2.66808e-14     0.0909542     0.0663729        110708        103411   1.56847e+06      0.166645
    0.0395395       1892.92       306.836       26922.6        57.892      -2.90043             0       6.38152     -0.273743             0       75.7294      -7.06067             0       25.4106             0             0   3.45974e-13     0.0909588     0.0663609        110717        103413    1.5653e+06      0.166654
      0.04004       1887.39       306.621       26522.9       57.7403       -3.3083             0       6.49681     -0.260912             0       76.8041      -7.48063             0       23.9483             0             0   5.16516e-12      0.090971     0.0662746        110725        103415   1.56213e+06      0.166676
    0.0405405       1876.36       306.255       25719.4       57.8113      -3.90771             0        6.6209     -0.248659             0       77.5822      -7.91325             0       22.5411             0             0   6.17331e-11      0.091071     0.0653334        110734        103417   1.55897e+06      0.166859
     0.041041       1864.94       305.876       24868.2       57.9122      -4.49613             0       6.74342     -0.236235             0       78.3669      -8.33755             0       21.1459             0             0   1.24417e-09     0.0911674      0.064433        110742        103418   1.55578e+06      0.167036
    0.0415415       1849.26       305.369       23483.1       58.3487      -4.96164             0       6.84845     -0.221908             0       79.2267      -8.66883             0       19.8858             0             0   1.50308e-08     0.0912232     0.0639881        110746        103420   1.55243e+06      0.167138
     0.042042       1832.29       304.798       21977.7       58.7146      -5.44844             0         6.949     -0.207222             0       79.9676      -8.97313             0       18.6277             0             0   2.53038e-07     0.0912428     0.0639138        110750        103422   1.54914e+06      0.167174
    0.0425425       1801.31       303.538       19160.4       58.3103      -6.16739             0       7.00069     -0.188635             0       79.4128      -8.98314             0       17.3906             0             0   2.93612e-06     0.0908676     0.0678814        110745        103423   1.54656e+06      0.166486
     0.043043       1766.87       302.177       16233.8       57.6726      -6.79055             0       7.04816     -0.170225             0       78.7072      -8.96127             0       16.1315             0             0    4.6556e-05     0.0903632     0.0729876        110740        103425   1.54405e+06      0.165562
    0.0435435       1695.62       299.738       12145.5       54.5549       -6.3957             0       7.05075     -0.153703             0       76.3995      -8.60062             0       14.6384             0             0   0.000525248     0.0884854     0.0901961        110728        103427   1.54215e+06      0.162122
     0.044044       1601.33       297.292       8145.27       51.0338      -5.87554             0       7.05067     -0.138411             0       74.1197      -8.23184             0       13.1295             0             0    0.00380336     0.0852628      0.109025        110716        103428   1.54037e+06      0.156217
    0.0445445       1268.32       294.779       5057.39       43.3328      -4.05678             0         7.023     -0.135879             0        72.129      -7.77883             0        11.457             0             0     0.0360936     0.0681034      0.144653        110714        103430   1.53965e+06      0.124778
     0.045045       938.076       292.378       2157.29       35.7892      -2.33896             0        6.9922     -0.133632             0       70.2839      -7.30976             0       9.79553             0             0     0.0689434     0.0506979      0.180371        110712        103432   1.53913e+06     0.0928881
    0.0455455       635.713       291.105       1155.84       29.8373      -1.64182             0        6.9297     -0.134275             0       69.9106      -6.67829             0       8.24612             0             0       0.10745      0.030805      0.216999        110723        103433   1.54054e+06     0.0564405