#           y             T         TMean   TPrime2Mean           U_x           U_y           U_z       UMean_x       UMean_y       UMean_z UPrime2Mea... UPrime2Mea... UPrime2Mea... UPrime2Mea... UPrime2Mea... UPrime2Mea...            O2           H2O          C3H8             p         pMean   pPrime2Mean           CO2
            0       290.899       288.344      0.307999        42.545             0             0       16.2817             0             0       75.5266             0             0             0             0             0      0.227837   0.000130208    0.00805904        110294        103384   1.24523e+06   0.000238565
  0.000500501        291.15       288.355      0.331384       42.7473     -0.095808             0       16.2755     0.0125833             0       74.8004     -0.136583             0      0.080947             0             0       0.22669    0.00036846     0.0106015        110298        103383     1.245e+06   0.000675088
     0.001001       291.409       288.366      0.355301       42.9489     -0.191534             0       16.2693     0.0251699             0       74.0734     -0.273113             0      0.162102             0             0      0.225533   0.000609838     0.0131516        110302        103383   1.24477e+06    0.00111734
    0.0015015       295.594       288.405      0.644964       42.7142     -0.246253             0       16.2667     0.0394084             0       72.9989     -0.383398             0      0.347215             0             0      0.219825     0.0024109     0.0194752        110312        103383   1.24489e+06    0.00441722
     0.002002       299.948       288.444      0.960202       42.4858     -0.302532             0       16.2642     0.0536392             0       71.9286     -0.493868             0      0.532815             0             0      0.214065    0.00423543     0.0257889        110321        103383   1.24501e+06     0.0077601
    0.0025025        346.16       288.561       7.64377       43.7856     -0.747248             0        16.292     0.0659491             0       71.9161     -0.650199             0      0.839739             0             0      0.195075     0.0119047     0.0296232        110281        103383   1.24474e+06     0.0218117
     0.003003       393.306        288.68       14.9188       45.0863      -1.19283             0       16.3199     0.0782362             0       71.9082     -0.806945             0       1.14767             0             0      0.175974     0.0196266     0.0334005        110242        103382   1.24448e+06     0.0359596
    0.0035035       594.988        289.04       120.174       46.5303      -1.78116             0       16.3768     0.0867472             0       72.6628      -1.03223             0       1.62184             0             0      0.138493     0.0360533     0.0277396        110253        103382   1.24448e+06     0.0660563
     0.004004       797.751       289.404       231.945       47.9999      -2.36716             0       16.4338     0.0952217             0       73.4227      -1.25852             0        2.0976             0             0      0.101053      0.052465     0.0220568        110264        103381   1.24447e+06     0.0961256
    0.0045045       1134.42       290.378        1151.7       52.6341      -2.66417             0       16.5019     0.0991611             0       74.8402      -1.60939             0       2.76944             0             0     0.0686196     0.0670197     0.0136683        110307        103380   1.24373e+06      0.122793
   0.00500501       1469.66       291.361       2089.03       57.2823      -2.95336             0         16.57      0.103099             0       76.2741       -1.9595             0        3.4442             0             0     0.0363747     0.0814891    0.00533698        110349        103380   1.24298e+06      0.149303
   0.00550551        1664.5       293.164       4767.09       63.3199      -2.46893             0       16.6334      0.106874             0       79.3283      -2.23388             0       4.40721             0             0     0.0227642     0.0875138    0.00267299        110353        103379   1.24186e+06      0.160342
   0.00600601       1857.23       294.961       7439.39       69.3509      -1.96237             0       16.6964      0.110802             0       82.4106      -2.50185             0       5.37241             0             0    0.00926376     0.0934856    7.2983e-05        110357        103378   1.24074e+06      0.171283
   0.00650651       1876.13       296.247       9638.49       74.8348      0.367338             0       16.7213      0.127297             0       87.8175        -2.243             0       6.51803             0             0    0.00481907     0.0951083    0.00274125        110367        103377   1.24012e+06      0.174256
   0.00700701       1894.61       297.519       11816.1       80.3227       2.68434             0       16.7451      0.143714             0       93.2244       -1.9909             0       7.65723             0             0    0.00043356      0.096699    0.00548128        110378        103376   1.23952e+06      0.177171
   0.00750751       1883.35       297.863       12477.9       86.0962        4.1064             0       16.6896      0.154575             0       98.6288      -2.21459             0       8.34465             0             0   0.000216297     0.0960315     0.0132758        110378        103375   1.23993e+06      0.175948
   0.00800801       1871.69       298.206       13138.4       91.8166       5.51421             0        16.633      0.165434             0       104.004      -2.43998             0       9.02914             0             0   2.49084e-06     0.0953501     0.0211992        110378        103374   1.24035e+06      0.174699
   0.00850851       1835.39       298.486       13714.8       94.2735       6.04511             0       16.5064      0.176124             0       107.606       -2.7697             0       9.53366             0             0   1.24114e-06     0.0938066     0.0370475        110376        103373   1.24171e+06      0.171871
   0.00900901       1798.95       298.762       14283.6       96.6961       6.56711             0       16.3791      0.186898             0       111.167      -3.09591             0       10.0407             0             0   1.38137e-08     0.0922516     0.0530145        110374        103372   1.24307e+06      0.169022
   0.00950951       1755.21       298.845       14441.2       97.2437       6.60282             0       16.2118      0.202248             0       112.501      -3.23081             0       10.6846             0             0   6.87254e-09      0.090066     0.0754518        110367        103371   1.24382e+06      0.165018
      0.01001       1711.75       298.925       14589.3       97.7598       6.63049             0       16.0441      0.217583             0       113.793      -3.36746             0       11.3272             0             0   6.94831e-11     0.0878819     0.0978736        110361        103369   1.24457e+06      0.161016
    0.0105105       1681.27       298.792       14270.9       96.7348       6.26378             0       15.8529      0.232186             0        112.98      -3.58988             0       11.9056             0             0   3.45558e-11     0.0857717      0.119539        110359        103368    1.2455e+06       0.15715
     0.011011        1651.2       298.656       13945.3       95.6995       5.90239             0       15.6612      0.246865             0       112.135      -3.81049             0       12.4853             0             0   3.92618e-13     0.0836754      0.141062        110358        103367   1.24643e+06      0.153309
    0.0115115       1639.49       298.363       13301.9       94.2047       5.77748             0       15.4486      0.264918             0       109.864       -3.9513             0       13.1227             0             0   1.94849e-13     0.0821983      0.156228        110365        103366   1.24702e+06      0.150603
     0.012012       1628.03       298.068       12653.3       92.7027       5.65358             0       15.2353      0.282987             0        107.56      -4.09342             0       13.7609             0             0   1.80548e-15     0.0807392       0.17121        110371        103365   1.24761e+06      0.147929
    0.0125125       1626.56       297.644       11792.8       90.9065       5.57092             0       14.9968      0.301755             0       103.922      -4.28887             0       14.4349             0             0   8.99897e-16     0.0800115      0.178681        110389        103363   1.24807e+06      0.146596
     0.013013       1625.08       297.218       10930.1       89.1066       5.49484             0       14.7579      0.320509             0       100.252      -4.48252             0       15.1103             0             0     1.576e-16     0.0792956       0.18603        110406        103362   1.24852e+06      0.145284
    0.0135135       1623.64       296.728       9989.58       87.1718       5.66556             0       14.5035      0.338712             0       95.3724      -4.60834             0       15.8426             0             0   5.53205e-15     0.0790249      0.188807        110422        103361   1.24816e+06      0.144788
     0.014014       1622.08       296.233       9044.19        85.225       5.83857             0       14.2487      0.356935             0        90.453      -4.72937             0       16.5736             0             0   1.42433e-13      0.078761      0.191513        110437        103360   1.24778e+06      0.144305
    0.0145145       1616.62       295.535       7929.72       82.8599       6.09084             0       13.9791      0.375871             0       84.1565      -4.68384             0       17.2652             0             0   4.84518e-12     0.0787386      0.191739        110444        103359   1.24638e+06      0.144264
     0.015015       1610.78       294.833       6814.48       80.4803       6.35323             0       13.7089      0.394922             0       77.8631      -4.63493             0       17.9499             0             0   1.14149e-10     0.0787206      0.191919        110450        103358   1.24499e+06      0.144231
    0.0155155       1592.61       293.982       5674.07       77.6303       6.94256             0       13.4191      0.417657             0       71.6734      -4.47663             0       18.4129             0             0   3.60555e-09     0.0788477      0.190609        110445        103357   1.24394e+06      0.144464
     0.016016       1573.91       293.134       4541.03       74.7835       7.53671             0       13.1291      0.440408             0       65.5391      -4.32782             0       18.8699             0             0   5.16921e-08     0.0789821      0.189223        110439        103356   1.24291e+06       0.14471
    0.0165165       1538.96       292.414       3631.03       72.0338       8.27684             0        12.829      0.463639             0       61.0811      -4.46599             0       19.1414             0             0   1.44878e-06     0.0793367      0.185574        110434        103355   1.24263e+06       0.14536
     0.017017       1503.71         291.7       2730.98       69.3079       8.98145             0       12.5289      0.486895             0       56.6718       -4.6079             0       19.4098             0             0   8.94491e-06      0.079696       0.18185        110430        103355   1.24233e+06      0.146018
    0.0175175       1459.69       291.148       2113.33       67.2606       8.67718             0       12.2289      0.510866             0       53.6435      -4.85618             0       19.5875             0             0   0.000189725      0.080191      0.175982        110424        103354    1.2416e+06      0.146925
     0.018018        1415.5       290.602       1505.54       65.2582       8.33794             0       11.9289      0.534792             0       50.6465       -5.1053             0       19.7594             0             0   0.000430266     0.0806603      0.170119        110419        103354   1.24089e+06      0.147785
    0.0185185       1366.94       290.214       1161.53       64.4608       7.06228             0       11.6324      0.557533             0       48.4874      -5.37717             0       19.7763             0             0    0.00227104     0.0804409      0.164371        110458        103353    1.2405e+06      0.147383
     0.019019       1318.87       289.834       824.987       63.6585       5.79734             0       11.3363      0.580203             0       46.3693      -5.65223             0       19.7888             0             0    0.00412991      0.080212      0.158642        110498        103353   1.24012e+06      0.146963
    0.0195195       1283.18       289.642       677.449       62.7293       4.80384             0       11.0515      0.601079             0        45.291      -6.00818             0       19.6862             0             0    0.00644677      0.079741      0.153407        110563        103353   1.24033e+06        0.1461
      0.02002       1246.87       289.454       532.246       61.7546       3.84733             0       10.7669      0.621996             0       44.2341       -6.3632             0       19.5809             0             0      0.008906     0.0792012      0.148259        110627        103353   1.24051e+06      0.145111
    0.0205205       1195.83       289.344       443.059         59.69       3.77862             0       10.4893      0.643915             0       43.6925      -6.69576             0       19.4112             0             0     0.0147819     0.0770094      0.145215        110662        103353   1.24039e+06      0.141096
     0.021021       1144.48       289.236       354.846        57.673        3.7451             0       10.2122      0.666092             0       43.1543      -7.02111             0       19.2369             0             0     0.0206759      0.074803      0.142242        110690        103353   1.24025e+06      0.137053
    0.0215215        1086.2        289.15        288.85       56.7406       4.51409             0       9.94651      0.694172             0       42.6922      -7.18183             0       18.9586             0             0     0.0269798     0.0722648      0.140891        110583        103353    1.2399e+06      0.132403
     0.022022       1028.34       289.066         224.1        55.816       5.30848             0       9.68207      0.722321             0       42.2241      -7.33131             0       18.6772             0             0     0.0331973     0.0697582      0.139592        110478        103353   1.23954e+06       0.12781
    0.0225225       979.497       289.007       186.439       55.0596       6.65488             0       9.44502      0.751959             0       41.6275      -7.23649             0        18.327             0             0     0.0375388     0.0679388      0.139394        110418        103354   1.23925e+06      0.124477
     0.023023       928.779       288.948       148.705       54.2182       8.03535             0       9.20908      0.781827             0       41.0243      -7.13522             0       17.9758             0             0     0.0422095     0.0659566      0.139437        110364        103354   1.23893e+06      0.120845
    0.0235235       839.074       288.887       109.472       51.6137       10.1226             0       8.99607      0.816471             0       40.2854      -6.90039             0       17.6024             0             0     0.0537081     0.0605973      0.144456        110425        103354   1.23829e+06      0.111026
     0.024024       748.347       288.826       70.8526       48.9839       12.1743             0       8.78396       0.85134             0       39.5489      -6.66314             0       17.2276             0             0     0.0655748     0.0550573      0.149731        110487        103355   1.23762e+06      0.100875
    0.0245245       637.356       288.777       44.3966       45.8515       13.5211             0       8.58972      0.890666             0       38.8592      -6.37798             0       16.8254             0             0     0.0847433     0.0459313      0.160068        110561        103355   1.23657e+06     0.0841548
     0.025025       528.107       288.729       18.8523       42.7806       14.7958             0       8.39627      0.930062             0       38.1818      -6.08908             0       16.4222             0             0      0.103864      0.036826        0.1704        110633        103355   1.23552e+06     0.0674721
    0.0255255       451.958       288.708       10.6286       40.8787       14.7016             0       8.21774      0.970793             0       37.7379      -5.72901             0       15.9982             0             0      0.122084     0.0281122      0.180631        110658        103355   1.23452e+06     0.0515067
     0.026026       378.154       288.689       2.77498       39.0193       14.5731             0       8.03962       1.01198             0         37.32      -5.37342             0       15.5763             0             0      0.139933      0.019577      0.190638        110678        103355   1.23352e+06     0.0358688
    0.0265265       347.085       288.686       1.66694       37.9346       13.8213             0       7.86922       1.06141             0       37.3786      -5.09941             0       15.1917             0             0      0.151037     0.0142994      0.196537        110618        103355   1.23268e+06     0.0261991
     0.027027       317.171       288.683      0.612158       36.8628        13.071             0        7.6999         1.111             0       37.4543      -4.83329             0       14.8126             0             0       0.16183    0.00917264      0.202236        110560        103355   1.23185e+06      0.016806
    0.0275275        307.47       288.683      0.490417       36.0167       12.3464             0       7.54953       1.16343             0       37.8312      -4.70547             0       14.5297             0             0       0.16719    0.00669033      0.204412        110531        103355   1.23135e+06     0.0122579
     0.028028       298.169       288.682      0.374444       35.1897       11.6371             0        7.4016       1.21546             0       38.1957      -4.58012             0       14.2525             0             0      0.172379    0.00429187      0.206469        110502        103355   1.23086e+06    0.00786351
    0.0285285         295.6       288.679      0.355705       34.6822       11.1857             0       7.29478       1.26094             0       38.3495      -4.49661             0       14.0714             0             0      0.174697    0.00330689      0.206502        110481        103355   1.23056e+06    0.00605883
     0.029029       293.127       288.676      0.337383       34.1783       10.7383             0       7.19129       1.30564             0        38.466      -4.40904             0       13.8946             0             0      0.176979    0.00234314      0.206473        110459        103355   1.23028e+06    0.00429306
    0.0295295       292.213       288.671      0.325841       33.7318       10.3567             0       7.14193       1.33757             0       37.9772      -4.25554             0       13.7864             0             0      0.178684    0.00172425      0.205413        110444        103355   1.23018e+06    0.00315915
      0.03003       291.327       288.666      0.314424       33.2887         9.976             0       7.09572       1.36864             0        37.446      -4.09736             0       13.6808             0             0      0.180364    0.00111747       0.20434        110429        103355    1.2301e+06     0.0020474
    0.0305305       290.882       288.663       0.30497       32.8996       9.60996             0       7.09879       1.38602             0       36.2492      -3.86591             0       13.6141             0             0      0.181646   0.000700211      0.203048        110411        103354   1.23022e+06    0.00128292
     0.031031        290.46       288.659      0.295455       32.5155       9.24684             0        7.1039       1.40262             0       35.0256        -3.635             0       13.5491             0             0      0.182876   0.000301746       0.20179        110394        103354   1.23035e+06   0.000552855
    0.0315315       290.373       288.658      0.285008       32.2073         8.928             0       7.13983       1.40735             0       33.3957      -3.41228             0        13.509             0             0      0.183317   0.000187542      0.201047        110381        103354   1.23063e+06   0.000343612
     0.032032       290.291       288.657      0.274449        31.904        8.6112             0       7.17654       1.41151             0       31.7654      -3.19583             0       13.4698             0             0      0.183734   7.87662e-05      0.200347        110368        103353   1.23092e+06   0.000144314
    0.0325325       290.272       288.658      0.262269       31.6724       8.32435             0       7.22465       1.40729             0       30.1301      -3.07112             0       13.4432             0             0      0.183817   4.93844e-05      0.200287        110356        103353   1.23129e+06   9.04814e-05
     0.033033       290.253       288.659      0.250145       31.4463       8.03831             0       7.27299       1.40278             0       28.5139       -2.9549             0       13.4168             0             0      0.183892   2.14076e-05       0.20025        110344        103353   1.23167e+06   3.92227e-05
    0.0335335       290.246        288.66       0.23883       31.2971       7.76378             0       7.32454       1.39415             0       27.1667      -2.95885             0       13.3913             0             0      0.183844   1.33134e-05      0.200543        110333        103353   1.23214e+06   2.43927e-05
     0.034034        290.24       288.661       0.22768       31.1541        7.4902             0       7.37654       1.38532             0         25.84      -2.97045             0       13.3657             0             0       0.18379   5.61925e-06      0.200855        110322        103353   1.23262e+06   1.02955e-05
    0.0345345       290.238       288.662       0.21878       31.0966       7.22964             0       7.43471        1.3739             0       24.7935      -3.08685             0       13.3382             0             0      0.183661   3.40754e-06       0.20144        110316        103353   1.23316e+06   6.24324e-06
     0.035035       290.235       288.663      0.210041       31.0478       6.97005             0        7.4938       1.36235             0       23.7591      -3.21108             0       13.3098             0             0      0.183528   1.31201e-06       0.20204        110310        103353   1.23369e+06   2.40385e-06
    0.0355355       290.234       288.663      0.203435       31.1142       6.72336             0       7.56514       1.34918             0       22.8853      -3.43933             0       13.2686             0             0      0.183342    7.6017e-07      0.202853        110311        103353   1.23425e+06   1.39277e-06
     0.036036       290.232       288.663      0.196929       31.1931       6.47636             0       7.63707       1.33588             0       22.0284      -3.67575             0       13.2224             0             0      0.183157   2.40821e-07      0.203661        110314        103353   1.23482e+06   4.41229e-07
    0.0365365       290.222       288.663      0.191698       31.4345       6.22537             0       7.71664       1.32103             0       21.3887      -4.01741             0       13.1119             0             0      0.182984   1.40288e-07      0.204417        110322        103353    1.2354e+06   2.57034e-07
     0.037037       290.211       288.663      0.186528       31.6888       5.97122             0       7.79559       1.30581             0       20.7809      -4.36464             0       12.9922             0             0      0.182817   4.58067e-08      0.205144        110330        103354   1.23598e+06   8.39264e-08
    0.0375375       290.197       288.664      0.182113       32.1041        5.6776             0       7.86672         1.286             0       20.5736      -4.78162             0       12.7572             0             0       0.18273   2.70553e-08      0.205523        110342        103354   1.23652e+06   4.95703e-08
     0.038038       290.183       288.665      0.177736       32.5253       5.37951             0       7.93648       1.26577             0       20.4045      -5.19985             0       12.5117             0             0      0.182653   9.44352e-09      0.205855        110354        103355   1.23707e+06   1.73023e-08
    0.0385385       290.174       288.666      0.173837       33.0191        5.0272             0       7.98953       1.24053             0       20.6995      -5.63326             0       12.1382             0             0      0.182706   5.68734e-09      0.205624        110366        103355   1.23756e+06   1.04203e-08
     0.039039       290.165       288.668      0.169942        33.511       4.67276             0       8.04073       1.21489             0       21.0386      -6.06321             0       11.7537             0             0      0.182777   2.16108e-09      0.205317        110378        103356   1.23805e+06   3.95949e-09
    0.0395395       290.157       288.669      0.166105       33.9804       4.29312             0       8.07013        1.1847             0       21.8987      -6.45216             0       11.2394             0             0      0.183057    1.3526e-09        0.2041        110390        103357   1.23845e+06   2.47821e-09
      0.04004        290.15        288.67      0.162264       34.4424       3.91467             0       8.09701       1.15411             0       22.8132      -6.83178             0       10.7152             0             0      0.183366   5.89512e-10      0.202758        110401        103358   1.23884e+06    1.0801e-09
    0.0405405       290.143       288.669      0.158379       34.8183       3.54997             0       8.09481       1.11902             0       24.3523        -7.104             0       10.0761             0             0      0.184006   3.48413e-10      0.199972        110410        103360   1.23911e+06   6.38358e-10
     0.041041       290.136       288.669      0.154495        35.185       3.18681             0       8.08957       1.08352             0       25.9414      -7.36217             0       9.42938             0             0      0.184657   1.22759e-10      0.197142        110419        103361   1.23936e+06   2.24917e-10
    0.0415415       290.131       288.666      0.150636       35.4477       2.84078             0        8.0502       1.04332             0       28.0899      -7.46297             0       8.69776             0             0      0.185421   7.00004e-11      0.193821        110424        103362   1.23948e+06   1.28254e-10
     0.042042       290.126       288.663      0.146861       35.7045       2.49516             0       8.00761       1.00255             0       30.2637      -7.54878             0       7.96298             0             0      0.186139   2.10208e-11      0.190703        110429        103364    1.2396e+06    3.8514e-11
    0.0425425       290.127       288.658      0.144001       35.8969       2.15396             0       7.92976      0.955612             0       32.7133       -7.4711             0       7.19367             0             0      0.186347   1.32455e-11      0.189797        110429        103365   1.23968e+06   2.42682e-11
     0.043043        290.13       288.654      0.141326       36.0923       1.81087             0        7.8491      0.908074             0       35.1671      -7.38078             0       6.42696             0             0      0.186483   7.20775e-12      0.189207        110429        103367   1.23977e+06   1.32059e-11
    0.0435435       290.149        288.65      0.140624       36.3194       1.44777             0       7.73857      0.854206             0       37.6657      -7.15602             0       5.68794             0             0      0.185846   1.96372e-11      0.191973        110425        103368   1.23984e+06    3.5979e-11
     0.044044       290.169       288.646      0.140122        36.563       1.08773             0       7.62543      0.799648             0       40.1622      -6.92212             0       4.95455             0             0      0.185206    3.4192e-11      0.194758        110421        103369   1.23991e+06    6.2646e-11
    0.0445445       290.199       288.641      0.141688       36.9767      0.759314             0       7.48532      0.737939             0       42.6376      -6.59348             0        4.2796             0             0      0.184524   7.07726e-11      0.197722        110417        103371      1.24e+06   1.29669e-10
     0.045045       290.227       288.637      0.143439       37.4041      0.444716             0       7.34207      0.675497             0       45.1007      -6.25647             0       3.61099             0             0        0.1839   1.08883e-10      0.200435        110413        103372   1.24011e+06   1.99493e-10
    0.0455455       290.247       288.634       0.14705       37.9687      0.269807             0       7.16714      0.605645             0       47.4389      -5.83478             0       3.00652             0             0      0.183858   1.62456e-10      0.200616        110412        103373   1.24029e+06   2.97649e-10