#           y             T         TMean   TPrime2Mean           U_x           U_y           U_z       UMean_x       UMean_y       UMean_z UPrime2Mea... UPrime2Mea... UPrime2Mea... UPrime2Mea... UPrime2Mea... UPrime2Mea...            O2           H2O          C3H8             p         pMean   pPrime2Mean           CO2
  1.11022e-19       291.044       288.586       0.11811       52.5215   1.83634e-17             0         13.19   1.97664e-18             0       48.3418   2.61211e-17             0   7.80085e-18             0             0      0.167715   1.25701e-15      0.270805        109082        103273        734751   2.30308e-15
  0.000500501       291.051       288.595       0.11642       52.1292     0.0827841             0       13.1512    0.00891092             0       47.9639      0.117757             0     0.0351671             0             0      0.167779    1.2811e-15      0.270527        109082        103273        734725   2.34721e-15
     0.001001       291.057       288.603      0.114736       51.7362      0.165598             0       13.1124     0.0178226             0       47.5846      0.235541             0      0.070435             0             0      0.167845    1.3052e-15      0.270241        109082        103273        734700   2.39136e-15
    0.0015015       291.056        288.62      0.116446       50.9609      0.263153             0       13.0266      0.027092             0       46.5279      0.367016             0      0.156033             0             0      0.168767   1.33683e-15      0.266232        109083        103272        734651   2.44933e-15
     0.002002       291.054       288.636      0.118183       50.1859      0.360796             0       12.9409     0.0363558             0       45.4705      0.498486             0      0.241854             0             0      0.169693   1.36835e-15      0.262207        109084        103272        734603   2.50706e-15
    0.0025025       291.032       288.648      0.126609       49.4784      0.480206             0       12.8626     0.0442116             0       44.2224       0.62842             0      0.383206             0             0      0.171508   1.36804e-15      0.254315        109085        103272        734563    2.5065e-15
     0.003003       291.009        288.66      0.135034       48.7716      0.599725             0       12.7844     0.0520594             0       42.9765      0.758193             0      0.524857             0             0      0.173323   1.36762e-15      0.246423        109086        103272        734523   2.50574e-15
    0.0035035       290.978       288.665      0.143111        48.171       0.73746             0       12.7307     0.0585766             0       42.0719      0.861143             0      0.716208             0             0      0.175125     1.349e-15      0.238589        109084        103272        734488   2.47161e-15
     0.004004       290.947       288.671      0.151143       47.5712      0.875117             0        12.677     0.0650974             0       41.1708      0.963916             0      0.907897             0             0      0.176921   1.33039e-15      0.230778        109082        103271        734453   2.43753e-15
    0.0045045       290.917       288.675      0.153529       47.0624       1.00309             0       12.6289      0.072081             0       40.7061       1.04466             0       1.14134             0             0      0.178091   1.31449e-15      0.225691        109081        103271        734430   2.40839e-15
   0.00500501       290.886        288.68      0.155827       46.5546       1.13067             0       12.5807     0.0790823             0       40.2452       1.12524             0       1.37518             0             0      0.179255   1.29867e-15      0.220632        109079        103271        734408    2.3794e-15
   0.00550551       290.854       288.687      0.149416       46.1491       1.22004             0       12.5242     0.0878291             0       40.1569       1.18982             0        1.6485             0             0       0.17977   1.29087e-15      0.218392        109078        103270        734410   2.36512e-15
   0.00600601       290.821       288.695      0.142952       45.7452       1.30881             0       12.4677     0.0965799             0       40.0717       1.25413             0       1.92238             0             0      0.180289   1.28298e-15      0.216134        109077        103270        734413   2.35067e-15
   0.00650651       290.775       288.705      0.132081       45.4726       1.34888             0       12.4075      0.105656             0       40.2461       1.29637             0       2.24195             0             0      0.181137   1.26699e-15      0.212447        109075        103270        734448   2.32137e-15
   0.00700701       290.728       288.714      0.121263       45.2016       1.38861             0       12.3474      0.114717             0       40.4223       1.33819             0        2.5623             0             0      0.181996   1.25078e-15      0.208712        109074        103269        734483   2.29166e-15
   0.00750751       290.667       288.721       0.11418       45.0386       1.40457             0       12.2929       0.12273             0       40.7214       1.34978             0        2.9377             0             0      0.183604   1.21867e-15      0.201718        109069        103269        734564   2.23283e-15
   0.00800801       290.607       288.728      0.107158       44.8773          1.42             0       12.2385      0.130721             0       41.0196       1.36104             0       3.31411             0             0      0.185219   1.18643e-15      0.194698        109065        103268        734646   2.17376e-15
   0.00850851       290.543        288.73      0.103876       44.8126       1.40307             0        12.192      0.137396             0       41.2663       1.35132             0       3.75312             0             0      0.187208   1.14595e-15      0.186049        109056        103268        734780    2.0996e-15
   0.00900901       290.478       288.731       0.10061        44.749       1.38507             0       12.1457      0.144041             0       41.5084       1.34168             0       4.19325             0             0      0.189181   1.10576e-15      0.177471        109048        103267        734915   2.02595e-15
   0.00950951       290.426       288.731     0.0982103       44.7496       1.30893             0       12.1077      0.149033             0       41.4986       1.33644             0        4.6953             0             0      0.190258   1.08062e-15      0.172788        109041        103267        735104    1.9799e-15
      0.01001       290.374       288.732     0.0958216       44.7493       1.23261             0       12.0699      0.153986             0        41.482       1.33152             0       5.19847             0             0      0.191322   1.05575e-15      0.168161        109035        103266        735294   1.93433e-15
    0.0105105       290.304       288.731     0.0939839       44.7076        1.1473             0       12.0409      0.157024             0       41.1328       1.34203             0        5.7567             0             0      0.191761   1.04369e-15      0.166253        109030        103265        735528   1.91223e-15
     0.011011       290.234        288.73     0.0921577       44.6635       1.06332             0       12.0119      0.160017             0       40.7769       1.35264             0       6.31598             0             0       0.19221    1.0315e-15      0.164301        109025        103265        735762    1.8899e-15
    0.0115115       290.134       288.728     0.0908424       44.5068       1.03872             0       11.9897      0.161017             0       40.1263       1.36751             0       6.92136             0             0      0.193114   1.01382e-15      0.160369        109018        103264        736005   1.85751e-15
     0.012012       290.034       288.727     0.0895401       44.3483       1.01506             0       11.9675      0.161975             0       39.4697       1.38233             0       7.52751             0             0      0.194015   9.96355e-16      0.156453        109011        103263        736247   1.82551e-15
    0.0125125       289.953       288.725     0.0887613       44.1121       1.02958             0       11.9476      0.161207             0        38.573       1.39542             0       8.16494             0             0      0.194763   9.87587e-16      0.153203        109003        103263        736475   1.80944e-15
     0.013013       289.873       288.723     0.0879879       43.8752       1.04429             0       11.9276      0.160439             0       37.6703       1.40921             0       8.80221             0             0      0.195494   9.79328e-16      0.150024        108995        103262        736703   1.79431e-15
    0.0135135       289.835       288.722     0.0874148       43.6122       1.06575             0       11.9015       0.15964             0       36.5461       1.44926             0       9.43398             0             0      0.195614   9.90126e-16      0.149502        108986        103261        736899    1.8141e-15
     0.014014       289.798       288.722     0.0868438       43.3476       1.08809             0       11.8749      0.158921             0       35.4163        1.4909             0        10.064             0             0       0.19572   1.00132e-15      0.149043        108978        103260        737093    1.8346e-15
    0.0145145       289.789       288.722     0.0863447       43.0266       1.14085             0       11.8309       0.16094             0       34.0894       1.58738             0       10.6347             0             0      0.195315   1.02625e-15      0.150801        108970        103260        737232   1.88029e-15
     0.015015        289.78       288.722     0.0858558       42.7041       1.19509             0       11.7863      0.163054             0       32.7595       1.68475             0       11.2029             0             0      0.194908    1.0513e-15      0.152571        108963        103259        737369   1.92618e-15
    0.0155155       289.777       288.722     0.0856961       42.3343       1.29735             0       11.7195        0.1682             0        31.331       1.81097             0       11.6901             0             0      0.194418   1.08016e-15      0.154705        108957        103258        737438   1.97906e-15
     0.016016       289.773       288.722     0.0855473       41.9665       1.40006             0       11.6522      0.173325             0       29.9027       1.93598             0       12.1753             0             0      0.193929   1.10908e-15      0.156831        108950        103258        737505   2.03205e-15
    0.0165165        289.77       288.723     0.0857275       41.6577       1.51602             0       11.5696      0.177786             0       28.4825       2.02442             0       12.6025             0             0       0.19349   1.13984e-15      0.158737        108945        103257        737503    2.0884e-15
     0.017017       289.767       288.723     0.0859145       41.3544       1.63062             0       11.4867      0.182119             0       27.0637       2.11029             0       13.0279             0             0       0.19305   1.17087e-15      0.160653        108940        103257        737498   2.14524e-15
    0.0175175        289.77       288.723     0.0862969       41.2041       1.70648             0       11.3954      0.182781             0       25.6814       2.12326             0        13.399             0             0      0.192544   1.20943e-15       0.16285        108936        103256        737408    2.2159e-15
     0.018018       289.774       288.723     0.0866735       41.0577       1.78068             0       11.3039      0.183333             0       24.3024       2.13408             0       13.7666             0             0      0.192041    1.2478e-15      0.165039        108932        103256        737314    2.2862e-15
    0.0185185       289.783       288.723     0.0868967       41.0186        1.8102             0       11.2051      0.180959             0       23.0103       2.08725             0       14.0383             0             0      0.191589   1.28089e-15      0.167006        108928        103255        737117   2.34683e-15
     0.019019       289.793       288.723     0.0870943       40.9782       1.84004             0       11.1062      0.178514             0       21.7286       2.03928             0       14.3049             0             0      0.191139   1.31369e-15      0.168959        108925        103255        736917   2.40692e-15
    0.0195195       289.809       288.722      0.086645       40.9051       1.87806             0       11.0037      0.174273             0       20.7103        1.9625             0       14.4408             0             0      0.190767   1.33912e-15      0.170576        108923        103255        736625   2.45352e-15
      0.02002       289.825       288.722     0.0861417       40.8285       1.91667             0       10.9013      0.169938             0       19.7105       1.88509             0       14.5711             0             0      0.190397   1.36484e-15      0.172189        108921        103254        736331   2.50063e-15
    0.0205205       289.841       288.723     0.0843456       40.6705       1.96923             0       10.8022      0.163338             0       19.1542       1.79252             0       14.5673             0             0      0.190052   1.39716e-15      0.173689        108920        103254        735960   2.55986e-15
     0.021021       289.856       288.723     0.0825001       40.5121       2.01953             0       10.7034       0.15665             0       18.6188       1.69966             0       14.5577             0             0      0.189713   1.42922e-15      0.175162        108920        103254        735586   2.61859e-15
    0.0215215       289.861       288.725     0.0795295       40.3458        2.0182             0       10.6095      0.147982             0       18.5598       1.60041             0       14.4149             0             0      0.189516   1.45508e-15      0.176019        108919        103255        735141   2.66597e-15
     0.022022       289.865       288.726     0.0765472       40.1814       2.01492             0       10.5156        0.1393             0       18.5185       1.50156             0       14.2659             0             0      0.189323   1.48056e-15      0.176855        108919        103255        734694   2.71266e-15
    0.0225225       289.855       288.728     0.0733122       40.0554        1.9693             0       10.4225      0.130303             0       18.8635        1.4115             0        13.983             0             0      0.189233   1.49777e-15       0.17725        108918        103255        734182    2.7442e-15
     0.023023       289.845        288.73      0.070099       39.9296       1.92449             0       10.3295      0.121348             0       19.2213       1.32247             0       13.6942             0             0      0.189141    1.5151e-15      0.177649        108918        103256        733667   2.77594e-15
    0.0235235       289.825       288.733     0.0673406       39.8097       1.89639             0        10.235      0.113263             0       19.8446       1.25477             0       13.2845             0             0      0.189024    1.5348e-15      0.178156        108918        103256        733088   2.81205e-15
     0.024024       289.805       288.735     0.0646225       39.6829       1.87142             0       10.1405      0.105239             0       20.4746       1.18846             0       12.8699             0             0      0.188896   1.55473e-15      0.178713        108918        103257        732506   2.84855e-15
    0.0245245       289.789       288.737      0.062703       39.4193       1.90839             0       10.0459     0.0984078             0        21.238        1.1497             0       12.3592             0             0      0.188534   1.57899e-15      0.180288        108917        103257        731866   2.89301e-15
     0.025025       289.774        288.74     0.0608079        39.145       1.94926             0       9.95152     0.0916456             0       22.0042       1.11258             0       11.8449             0             0      0.188157   1.60344e-15      0.181929        108916        103258        731224   2.93779e-15
    0.0255255       289.766       288.743     0.0593749       38.6668       2.06409             0        9.8623     0.0861879             0        22.823       1.10635             0       11.2643             0             0      0.187496   1.63133e-15      0.184802        108916        103259        730536   2.98889e-15
     0.026026       289.758       288.747     0.0579463       38.1937       2.17813             0       9.77371      0.080814             0       23.6437        1.1019             0        10.682             0             0      0.186847   1.65872e-15       0.18762        108915        103260        729847   3.03908e-15
    0.0265265       289.751       288.752      0.056597       37.8125       2.27769             0       9.69663     0.0769675             0       24.4992       1.12992             0       10.0689             0             0      0.186434   1.67708e-15       0.18942        108915        103260        729127   3.07273e-15
     0.027027       289.744       288.757     0.0552623       37.4461       2.37298             0       9.62015      0.073208             0       25.3483       1.15947             0        9.4561             0             0      0.186058   1.69446e-15       0.19105        108914        103261        728408   3.10456e-15
    0.0275275       289.728       288.764     0.0541835       37.3407       2.39356             0       9.55413     0.0709713             0       26.0837       1.21585             0       8.84795             0             0      0.186364   1.69459e-15      0.189724        108914        103262        727687    3.1048e-15
     0.028028       289.712       288.772     0.0531367       37.2347       2.41074             0       9.48853     0.0688064             0       26.8006        1.2726             0       8.24167             0             0      0.186702   1.69405e-15      0.188252        108913        103262        726968   3.10382e-15
    0.0285285       289.689        288.78     0.0526285       37.1166       2.37084             0       9.43004     0.0678529             0       27.2045       1.33572             0       7.66684             0             0      0.187604   1.68229e-15      0.184332        108913        103263        726289   3.08227e-15
     0.029029       289.667       288.788     0.0521658       36.9867       2.32777             0       9.37213     0.0669854             0       27.5876       1.39749             0       7.09524             0             0      0.188517   1.67042e-15      0.180361        108912        103263        725615   3.06052e-15
    0.0295295       289.658       288.793     0.0524408       36.6648       2.23335             0       9.32369     0.0675151             0       27.6306       1.43755             0       6.57612             0             0      0.189621   1.65669e-15      0.175562        108912        103264        725018   3.03537e-15
      0.03003       289.651       288.798     0.0527492       36.3335       2.13889             0       9.27604     0.0681495             0        27.657       1.47538             0       6.06134             0             0      0.190711   1.64341e-15      0.170821        108911        103265        724428   3.01103e-15
    0.0305305       289.674         288.8     0.0535793       35.8544       2.04371             0       9.24065     0.0704227             0        27.421       1.47843             0       5.61475             0             0      0.191593   1.63708e-15      0.166988        108911        103265        723930   2.99943e-15
     0.031031       289.699       288.801     0.0544109       35.3737       1.95202             0       9.20603     0.0727649             0       27.1765       1.47967             0       5.17296             0             0      0.192444    1.6313e-15      0.163287        108911        103266        723439   2.98885e-15
    0.0315315       289.746         288.8      0.055266       34.8696       1.91315             0       9.18304     0.0761495             0       26.8014        1.4535             0       4.80372             0             0       0.19283   1.63389e-15      0.161608        108910        103266        723044   2.99359e-15
     0.032032       289.794       288.799     0.0561147       34.3686       1.87804             0        9.1605      0.079534             0       26.4259       1.42627             0       4.43888             0             0      0.193193   1.63671e-15      0.160032        108910        103267        722654   2.99876e-15
    0.0325325       289.846       288.797     0.0568695       33.9114       1.89795             0       9.14452     0.0829168             0       26.0447       1.38347             0       4.13845             0             0      0.193211   1.64296e-15      0.159954        108909        103267        722345   3.01021e-15
     0.033033       289.898       288.795     0.0576288       33.4495       1.92276             0       9.12845     0.0862329             0       25.6648       1.33978             0       3.84157             0             0      0.193218   1.64973e-15       0.15992        108908        103267        722040   3.02261e-15
    0.0335335       289.947       288.792     0.0584498        32.921       2.01697             0       9.11116     0.0886054             0       25.3025       1.28335             0       3.59466             0             0      0.193085   1.66391e-15      0.160501        108905        103268        721799    3.0486e-15
     0.034034       289.995        288.79      0.059256       32.3864        2.1152             0       9.09351     0.0908781             0       24.9408       1.22581             0       3.35037             0             0      0.192955    1.6783e-15      0.161066        108903        103268        721561   3.07496e-15
    0.0345345       290.025       288.786     0.0598571       31.7676       2.26842             0       9.07102     0.0917823             0       24.5875       1.15305             0       3.14184             0             0      0.192874   1.69552e-15      0.161418        108899        103268        721382    3.1065e-15
     0.035035       290.053       288.782     0.0604293       31.1579        2.4191             0       9.04827     0.0925804             0       24.2341        1.0792             0       2.93521             0             0      0.192808   1.71224e-15      0.161704        108895        103268        721208   3.13714e-15
    0.0355355       290.059       288.777     0.0606172       30.6689       2.53604             0       9.02217     0.0919689             0       23.8787      0.990893             0       2.75376             0             0      0.192942   1.72238e-15      0.161122        108889        103269        721088   3.15572e-15
     0.036036       290.063       288.771      0.060819       30.2025       2.64427             0       8.99597     0.0912698             0       23.5215      0.901865             0       2.57373             0             0      0.193083   1.73219e-15      0.160506        108883        103269        720974   3.17369e-15
    0.0365365       290.061       288.765     0.0612006       30.0271       2.64008             0       8.96871     0.0894425             0         23.14      0.803486             0       2.41178             0             0      0.193324   1.73765e-15      0.159462        108876        103269        720925   3.18371e-15
     0.037037       290.059       288.759     0.0616429       29.8729        2.6265             0       8.94143     0.0875553             0       22.7558      0.704991             0       2.25088             0             0      0.193574   1.74272e-15      0.158374        108868        103269        720883   3.19298e-15
    0.0375375       290.056       288.753     0.0628457       29.9833       2.49545             0       8.91406     0.0849181             0       22.3384      0.605029             0       2.10308             0             0      0.193947   1.74272e-15      0.156751        108859        103269        720918     3.193e-15
     0.038038       290.053       288.748     0.0640993       30.1056       2.35845             0       8.88665     0.0822493             0       21.9185      0.505924             0       1.95606             0             0      0.194323   1.74259e-15      0.155114        108851        103270        720961   3.19274e-15
    0.0385385       290.051       288.744     0.0659711       30.3719       2.14919             0       8.85879     0.0791984             0       21.4673      0.417238             0       1.81846             0             0      0.194735   1.74068e-15      0.153324        108842        103270        721098   3.18925e-15
     0.039039       290.049        288.74     0.0678569       30.6433       1.93767             0       8.83085     0.0761455             0       21.0148      0.330362             0       1.68143             0             0      0.195127   1.73913e-15      0.151622        108833        103270        721244   3.18642e-15
    0.0395395       290.049       288.738     0.0699089       30.9756       1.69934             0       8.80195     0.0730691             0       20.5474      0.264876             0       1.55115             0             0      0.195275   1.74185e-15      0.150976        108824        103270        721490    3.1914e-15
      0.04004       290.049       288.736     0.0719653         31.31       1.46122             0       8.77301     0.0699995             0       20.0812      0.201542             0        1.4214             0             0      0.195414   1.74464e-15      0.150374        108815        103270        721745   3.19651e-15
    0.0405405       290.046       288.735     0.0740729       31.6675       1.22547             0       8.74357     0.0670085             0       19.6296      0.162965             0        1.2978             0             0      0.195436   1.74826e-15      0.150277        108807        103270        722091   3.20314e-15
     0.041041       290.043       288.734     0.0761755       32.0235      0.991404             0       8.71421     0.0640053             0       19.1819      0.126016             0       1.17487             0             0      0.195482   1.75113e-15      0.150077        108799        103270        722442   3.20839e-15
    0.0415415       290.039       288.733     0.0782211       32.3637      0.776145             0        8.6858     0.0608658             0       18.7769      0.107306             0       1.05955             0             0      0.195794   1.74558e-15      0.148723        108793        103271        722855   3.19822e-15
     0.042042       290.035       288.733     0.0802761       32.6966      0.564584             0       8.65755     0.0576929             0       18.3769     0.0894577             0      0.945048             0             0      0.196106   1.74004e-15      0.147367        108786        103271        723272   3.18808e-15
    0.0425425       290.038       288.733      0.082433       32.9503      0.393353             0       8.63098     0.0541567             0       18.0304     0.0810221             0      0.839578             0             0      0.196421   1.73467e-15      0.145995        108782        103271        723719   3.17823e-15
     0.043043       290.041       288.733     0.0846383       33.1895      0.227857             0       8.60438     0.0505654             0        17.687     0.0727102             0      0.734996             0             0      0.196693   1.73064e-15      0.144811        108777        103271        724165   3.17086e-15
    0.0435435       290.045       288.734     0.0873582       33.2732      0.123305             0       8.57749     0.0463899             0       17.3757     0.0657126             0      0.639842             0             0      0.196509   1.74101e-15      0.145614        108774        103271        724601   3.18985e-15
     0.044044       290.051       288.735     0.0901072       33.3406      0.024201             0       8.55004     0.0421352             0       17.0651       0.05853             0      0.545575             0             0      0.196275   1.75319e-15      0.146629        108770        103271        725033   3.21218e-15
    0.0445445       290.072       288.737     0.0931567       33.2379      -0.01845             0       8.51686     0.0370608             0       16.7618     0.0494304             0      0.460511             0             0      0.195534   1.78423e-15      0.149854        108768        103271        725436   3.26904e-15
     0.045045       290.095       288.738      0.096144       33.1244    -0.0585343             0       8.48199     0.0319485             0        16.456     0.0407324             0      0.376518             0             0       0.19472   1.81924e-15      0.153391        108766        103272        725833   3.33318e-15
    0.0455455        290.14       288.739      0.098502       32.9015    -0.0726653             0       8.42996     0.0264532             0        16.124     0.0360952             0       0.30335             0             0      0.193179   1.89438e-15      0.160091        108764        103272        726184   3.47085e-15