#           y             T         TMean   TPrime2Mean           U_x           U_y           U_z       UMean_x       UMean_y       UMean_z UPrime2Mea... UPrime2Mea... UPrime2Mea... UPrime2Mea... UPrime2Mea... UPrime2Mea...            O2           H2O          C3H8             p         pMean   pPrime2Mean           CO2
  1.11022e-19       291.259       288.242       0.46039       34.2147  -1.64321e-14             0       21.0205   -1.0245e-15             0       33.0154  -1.02607e-14             0   5.34081e-16             0             0      0.229842   2.81569e-05   0.000395873        111320        103430   1.74689e+06   5.15888e-05
  0.000500501       292.037       288.386       2.66663       34.2841     -0.301197             0       21.0226     0.0468598             0       33.0565     -0.189424             0      0.095293             0             0       0.22949   0.000118737   0.000998947        111304        103430   1.74682e+06   0.000217549
     0.001001        292.83       288.531       5.00783       34.3533     -0.602297             0       21.0247     0.0937153             0       33.0985     -0.378908             0      0.190657             0             0      0.229133   0.000210857    0.00160675        111288        103430   1.74675e+06   0.000386329
    0.0015015       300.961       289.556       74.6881       34.3022     -0.854523             0       21.0453      0.138416             0       33.6024     -0.598447             0      0.321378             0             0       0.22642     0.0010708    0.00457286        111285        103430    1.7456e+06     0.0019619
     0.002002       309.213       290.592       148.393       34.2534      -1.10603             0       21.0661      0.183165             0       34.1103     -0.817626             0      0.452557             0             0      0.223682    0.00194094     0.0075476        111282        103430   1.74445e+06    0.00355617
    0.0025025       347.819       294.607       1224.18       34.7982      -1.17853             0       21.1215      0.239656             0       35.6369     -0.946906             0      0.698079             0             0      0.214447    0.00535308     0.0126721        111288        103429   1.74392e+06    0.00980784
     0.003003       387.246       298.703       2429.82       35.3509      -1.25074             0       21.1777      0.296132             0       37.1946       -1.0768             0      0.944442             0             0      0.205103    0.00881426     0.0177736        111295        103429   1.74339e+06     0.0161494
    0.0035035       562.801       316.511       25147.6       37.2121      -1.27618             0       21.3698       0.35017             0        43.916      -1.30779             0       1.33024             0             0      0.177451     0.0204004     0.0190639        111315        103428   1.74226e+06     0.0373773
     0.004004       739.856       334.332       47941.2       39.1068       -1.2906             0       21.5625      0.404246             0       50.6782      -1.54103             0       1.71791             0             0      0.149712     0.0320296     0.0202975        111336        103428   1.74113e+06     0.0586843
    0.0045045       1103.06        353.72       80143.8        45.159     0.0617469             0       21.8327      0.463194             0        62.507      -2.05202             0       2.33783             0             0      0.110951     0.0490127     0.0144906        111341        103427   1.74077e+06     0.0898004
   0.00500501       1464.81       372.968        112136       51.2004       1.39625             0       22.1016      0.521754             0       74.3063      -2.57406             0       2.96021             0             0     0.0723074     0.0659432    0.00871107        111346        103427   1.74042e+06       0.12082
   0.00550551       1683.72       378.242        123318         56.16       0.96414             0       22.2386      0.541968             0       83.1846      -4.18991             0       3.82564             0             0     0.0453299     0.0776698     0.0056299        111335        103426   1.74148e+06      0.142306
   0.00600601       1899.89       383.454        134347       61.0754      0.520888             0       22.3731      0.562288             0       91.9915      -5.80253             0       4.69117             0             0      0.018566     0.0892925    0.00268573        111325        103425   1.74252e+06      0.163601
   0.00650651        1891.6       383.454        132857       62.3535     -0.839831             0       22.2976      0.591367             0       94.9308      -7.14874             0        5.5649             0             0    0.00939611     0.0923644     0.0110222        111335        103425   1.74221e+06      0.169229
   0.00700701       1883.05       383.435        131320       63.6337       -2.1952             0       22.2197      0.620506             0       97.8492      -8.49235             0       6.44136             0             0   0.000352106     0.0953686     0.0195054        111344        103424    1.7419e+06      0.174733
   0.00750751       1857.34       382.021        126480       65.0588      -3.17385             0       21.9672      0.653814             0       99.2938      -9.65382             0       7.50999             0             0   0.000174967     0.0936105     0.0383263        111349        103423    1.7414e+06      0.171512
   0.00800801       1831.54       380.609        121645       66.4728      -4.15211             0       21.7125      0.687115             0       100.748      -10.8135             0       8.57849             0             0   6.57501e-07      0.091846      0.057199        111354        103423   1.74089e+06      0.168279
   0.00850851       1799.54       379.243        117114        67.201      -5.10677             0       21.3285      0.719928             0        102.82      -11.8651             0       9.63921             0             0   3.26222e-07     0.0896974     0.0792618        111361        103422   1.73943e+06      0.164342
   0.00900901       1767.67       377.916        112654       67.9252      -6.05427             0       20.9429      0.752402             0       104.885      -12.9184             0       10.7037             0             0   8.97982e-10      0.087555      0.101262        111369        103421   1.73796e+06      0.160417
   0.00950951       1742.59        378.69        112039        68.433      -6.61176             0       20.4683      0.766348             0       106.588      -14.0654             0       11.9742             0             0   4.45032e-10     0.0857473      0.119827        111375        103420   1.73601e+06      0.157105
      0.01001       1717.62       379.445        111398       68.9299      -7.16461             0       19.9935      0.780129             0       108.286      -15.2102             0       13.2482             0             0   1.13049e-12     0.0839452      0.138333        111381        103419   1.73407e+06      0.153803
    0.0105105       1698.17       379.301        109473        68.897      -7.49055             0       19.5145      0.785849             0       109.751      -16.2458             0       14.6909             0             0   5.59907e-13     0.0824218      0.153983        111384        103418   1.73172e+06      0.151012
     0.011011       1678.72       379.117        107493        68.852      -7.81327             0       19.0357      0.791083             0        111.23      -17.2883             0       16.1371             0             0   1.85405e-15     0.0808963      0.169654        111387        103416   1.72936e+06      0.148217
    0.0115115       1659.09       377.121        103074       68.2688       -7.9924             0       18.5696       0.77476             0       113.323      -18.6417             0       17.7389             0             0    9.4978e-16     0.0792788      0.186278        111387        103415   1.72647e+06      0.145254
     0.012012       1639.44       375.159       98738.8       67.6792      -8.17934             0       18.1034      0.758408             0       115.455      -19.9968             0       19.3421             0             0   1.35666e-16     0.0776607      0.202909        111386        103413   1.72358e+06      0.142289
    0.0125125       1618.66         374.6       97834.6       66.8275      -8.68363             0       17.6349      0.740888             0       119.155      -21.4231             0       21.0051             0             0   2.98793e-15     0.0760121      0.219858        111384        103412    1.7206e+06      0.139268
     0.013013        1597.8        374.07       96996.2       65.9782      -9.19587             0       17.1678      0.722966             0       122.837      -22.8478             0       22.6755             0             0   1.57588e-14     0.0743621      0.236822        111381        103410   1.71761e+06      0.136245
    0.0135135       1573.74       374.596       98623.2       65.2185      -10.0055             0        16.751       0.68999             0        125.87       -24.208             0       24.6245             0             0   4.00096e-13     0.0726619      0.254305        111375        103408   1.71416e+06       0.13313
     0.014014       1549.36       375.145        100299        64.444      -10.8178             0       16.3365      0.656702             0       128.833      -25.5512             0        26.572             0             0   1.81133e-12     0.0709532      0.271875        111369        103406   1.71071e+06      0.129999
    0.0145145       1513.82       376.496        103680       63.1547      -11.7182             0       15.9979      0.612533             0       129.363      -26.3049             0       28.4682             0             0   3.88707e-11     0.0689513      0.292459        111361        103403   1.70703e+06      0.126332
     0.015015       1478.34       377.852        107078       61.8547      -12.6145             0       15.6598      0.568934             0       129.817       -27.024             0       30.3544             0             0   1.18733e-10     0.0669649      0.312883        111353        103401   1.70335e+06      0.122692
    0.0155155       1444.76       379.359        111064       60.2099      -13.3797             0       15.3351      0.543714             0       127.808      -26.6221             0       31.9168             0             0   1.58255e-09     0.0654809      0.328134        111340        103398   1.69953e+06      0.119973
     0.016016       1411.43       380.859        115043       58.5608       -14.145             0       15.0124      0.518618             0       125.881      -26.2582             0       33.4929             0             0   5.32371e-09     0.0640434      0.342907        111327        103396    1.6957e+06      0.117339
    0.0165165       1385.81       382.124        118804       56.7811      -14.9128             0       14.7495      0.497276             0       126.398      -27.0406             0       35.4821             0             0   7.79542e-08     0.0640124       0.34321        111306        103393   1.69199e+06      0.117283
     0.017017       1360.52       383.383        122557        54.993      -15.6795             0       14.4906      0.476036             0       127.153      -27.9137             0       37.5123             0             0    2.0736e-07     0.0640311      0.343004        111286        103391   1.68824e+06      0.117317
    0.0175175       1344.32       384.463        126078       52.9649      -16.4136             0       14.3455      0.457724             0       134.639      -31.3648             0       40.7076             0             0   1.94984e-06     0.0654591      0.328308        111268        103389   1.68337e+06      0.119933
     0.018018       1329.22       385.543        129607       50.9495      -17.1692             0       14.2027      0.439563             0       142.343      -34.9053             0       43.9444             0             0   4.42369e-06     0.0669255      0.313215        111251        103386   1.67855e+06       0.12262
    0.0185185       1343.38       386.636        133315       49.2753      -18.4997             0       14.1193      0.425445             0       155.892      -40.8366             0       48.2932             0             0   2.64822e-05     0.0694207      0.287478        111238        103384   1.67504e+06      0.127192
     0.019019       1358.59       387.712        136984         47.63      -19.8793             0       14.0324      0.412049             0       169.208      -46.7225             0       52.6746             0             0   5.58584e-05     0.0719139       0.26173        111226        103382   1.67149e+06       0.13176
    0.0195195       1400.34       388.371        139622       46.7157      -22.5002             0       13.8578      0.416949             0       176.595      -51.4553             0       57.8785             0             0   0.000270491     0.0743558      0.235707        111202        103380   1.66724e+06      0.136234
      0.02002       1442.54       388.997        142171       45.7991       -25.109             0       13.6784      0.423915             0       183.517      -56.0493             0       63.0404             0             0    0.00057916     0.0767506      0.209759        111178        103378   1.66275e+06      0.140621
    0.0205205       1495.51        388.81        142562       44.8241      -27.4256             0       13.3835      0.480487             0       179.271      -57.3081             0       67.1939             0             0    0.00314469     0.0780125      0.185625        111154        103376   1.65271e+06      0.142933
     0.021021       1547.14       388.583        142852       43.8574      -29.6879             0       13.0884      0.538836             0       174.978      -58.5407             0       71.3583             0             0    0.00585092     0.0791869      0.161777        111131        103373   1.64276e+06      0.145085
    0.0215215       1568.17       387.434        140876       43.0799       -30.714             0       12.7873      0.637739             0       169.605      -59.1742             0       75.7734             0             0     0.0117665     0.0783653      0.144469        111128        103371   1.63491e+06       0.14358
     0.022022       1588.76       386.238        138783       42.3729       -31.698             0       12.4893      0.740921             0       164.408      -59.7573             0       80.0265             0             0     0.0176747     0.0775111      0.127529        111127        103369   1.62827e+06      0.142015
    0.0225225       1599.87       384.012        134150       43.1974      -31.7664             0       12.2583      0.937103             0       163.029      -59.2421             0       80.7627             0             0     0.0234239      0.075947      0.118577        111163        103369   1.64806e+06      0.139149
     0.023023       1602.75       381.588        129199       43.7429      -31.5997             0       12.0212       1.14298             0       161.005      -58.2116             0        81.111             0             0     0.0299951     0.0739986      0.109995        111203        103370   1.66992e+06      0.135579
    0.0235235       1435.12       375.038        117641       38.5043      -26.5584             0       11.6592       1.54983             0       145.595      -46.4913             0       73.4153             0             0     0.0536148     0.0640809      0.109103        111336        103374   1.73494e+06      0.117408
     0.024024       1266.88       368.259        105717       33.2131      -21.4497             0       11.2917       1.96272             0       129.715       -34.524             0       65.8195             0             0     0.0772417     0.0541496      0.108321        111470        103378    1.8001e+06     0.0992121
    0.0245245       1086.67       356.917       86533.9       26.8764      -15.0033             0       10.8154       2.49547             0       104.519      -17.6554             0       60.2067             0             0       0.10101     0.0439476      0.109702        111618        103383   1.86807e+06     0.0805203
     0.025025       908.324       345.433       67235.5       20.8414      -8.72618             0       10.3484       3.02376             0       79.9417      -1.26637             0       54.9156             0             0      0.124546     0.0338475      0.111051        111761        103388   1.93335e+06     0.0620149
    0.0255255       765.441       331.268       45745.5       20.5387      -5.66416             0       10.0604       3.46737             0       67.1062       6.01085             0       55.7379             0             0      0.143656     0.0256818      0.111786        111816        103389   1.94736e+06     0.0470538
     0.026026       621.946       317.331         24767       20.2724      -2.71744             0       9.77888       3.90219             0        54.672       12.9601             0       56.6089             0             0      0.162725     0.0175208      0.112647        111869        103390    1.9603e+06     0.0321014
    0.0265265       467.324       307.547       13112.3       20.6692      -1.87245             0       9.61597       4.17659             0       49.5546         13.93             0       58.3689             0             0      0.181053    0.00944793      0.115832        111889        103390   1.95391e+06     0.0173104
     0.027027       320.846       298.169       2047.53       21.1283      -1.06087             0       9.45477       4.44908             0       44.6194       14.9009             0       60.1034             0             0      0.198479    0.00177262      0.118851        111907        103389   1.94726e+06    0.00324777
    0.0275275       317.046       295.931        1316.2        22.679     -0.834495             0       9.32375        4.6882             0       42.8756       15.8898             0       61.3903             0             0       0.20013     0.0010625      0.118962        111886        103389   1.93614e+06    0.00194669
     0.028028       313.754       293.777       619.196       24.1781     -0.604216             0       9.19172       4.92754             0       41.1707       16.8919             0       62.6695             0             0      0.201692   0.000388004      0.119096        111865        103388   1.92494e+06   0.000710895
    0.0285285       319.029       293.045       500.908       24.8067     -0.308145             0       9.04259       5.17063             0       40.1198       18.1166             0       63.8192             0             0      0.201751    0.00031415      0.119594        111842        103388   1.91241e+06   0.000575581
     0.029029       324.307       292.335       386.651       25.3963   -0.00316638             0       8.89163        5.4135             0       39.0875        19.333             0       64.9434             0             0       0.20181   0.000243788      0.120063        111819        103387   1.90017e+06   0.000446664
    0.0295295       329.618       291.986       337.879       25.3547      0.446504             0       8.71086       5.65292             0       38.3561       20.4146             0       65.6532             0             0      0.201847    0.00023014      0.120039        111794        103387    1.8928e+06   0.000421659
      0.03003       334.818       291.646       290.298       25.3097      0.926644             0       8.52972       5.89299             0       37.6682       21.4995             0       66.3544             0             0      0.201898   0.000217143      0.119951        111767        103387   1.88498e+06   0.000397847
    0.0305305        338.26       291.445       261.389       25.2123       1.88412             0       8.34267       6.14336             0       37.6603       22.6355             0       66.9202             0             0       0.20216   0.000214343      0.118843        111720        103387   1.87032e+06   0.000392716
     0.031031       341.568       291.247       233.034       25.0733       2.83979             0       8.15523       6.39336             0       37.6738       23.7544             0       67.4712             0             0      0.202449   0.000211453      0.117614        111673        103387   1.85567e+06   0.000387422
    0.0315315       342.851       291.105       213.063        24.304       3.76805             0       7.96195       6.63774             0       38.0108       24.6143             0       67.7975             0             0      0.203165   0.000207208      0.114548        111624        103387   1.84105e+06   0.000379644
     0.032032       344.053       290.964       193.431         23.51       4.69656             0       7.76854       6.88146             0       38.3733       25.4543             0       68.1137             0             0        0.2039   0.000202728      0.111395        111575        103387   1.82629e+06   0.000371436
    0.0325325       344.058       290.849       178.764       22.3553       5.62856             0       7.57308       7.11553             0         39.11       26.0016             0       68.2816             0             0      0.204938   0.000194808      0.106967        111524        103387   1.80934e+06   0.000356924
     0.033033       343.975       290.735       164.392       21.1667       6.53615             0       7.37709       7.34777             0       39.8638       26.5203             0        68.434             0             0      0.205961   0.000187002      0.102597        111475        103387   1.79251e+06   0.000342622
    0.0335335       342.632       290.643        154.21       19.4975       7.09822             0       7.17359       7.55403             0       40.8593       26.6341             0       68.3673             0             0      0.206795   0.000180814     0.0990342        111445        103388   1.77745e+06   0.000331285
     0.034034       341.154       290.551       144.221       17.8326       7.65459             0       6.96938       7.75772             0       41.8688       26.7179             0       68.2781             0             0        0.2076   0.000174941      0.095596        111417        103388    1.7625e+06   0.000320524
    0.0345345       337.811       290.473        136.86       16.2258       8.13295             0       6.75548       7.92618             0       43.0709        26.391             0       67.8785             0             0      0.208003   0.000173375     0.0938588        111408        103389   1.74909e+06   0.000317655
     0.035035       334.369       290.396        129.61       14.6372       8.59635             0       6.54032       8.09101             0       44.2781       26.0316             0       67.4488             0             0      0.208401   0.000171766     0.0921479        111401        103390   1.73591e+06   0.000314707
    0.0355355        329.61       290.323       123.845       13.2922       8.86097             0       6.30839       8.20782             0        45.552       25.2395             0       66.6192             0             0       0.20872   0.000169584     0.0907846        111412        103392   1.72563e+06    0.00031071
     0.036036        324.81       290.252       118.167       11.9884       9.12806             0       6.07443       8.32033             0       46.8254       24.4167             0       65.7556             0             0      0.209069   0.000166701     0.0892945        111424        103394   1.71552e+06   0.000305426
    0.0365365       319.497       290.187       113.632        11.217       9.42713             0        5.8142       8.37755             0       48.0917        23.198             0       64.4551             0             0      0.209816   0.000154763     0.0861706        111447        103396   1.70744e+06   0.000283554
     0.037037       314.191       290.124       109.178        10.477       9.72436             0       5.55116       8.42991             0       49.3533       21.9505             0       63.1176             0             0      0.210591   0.000141939     0.0829314        111470        103399   1.69955e+06   0.000260059
    0.0375375       308.969       290.074       105.735       10.1309       9.99854             0       5.25308       8.42133             0       50.5571       20.3424             0       61.3168             0             0      0.211724   0.000118033     0.0782504        111499        103402   1.69386e+06   0.000216259
     0.038038       303.873       290.025       102.362       9.79679       10.2729             0       4.95158       8.40775             0        51.758       18.7134             0       59.4787             0             0      0.212837   9.41575e-05     0.0736547        111529        103405   1.68832e+06   0.000172514
    0.0385385       300.295       289.991       99.8277       9.61013        10.549             0       4.60865       8.33321             0       52.9228       16.8299             0       57.1859             0             0      0.213711    7.0652e-05     0.0700976        111557        103409    1.6846e+06   0.000129448
     0.039039       296.861       289.959       97.3233       9.42177       10.8158             0       4.26219       8.25355             0        54.088       14.9366             0       54.8594             0             0      0.214539   4.80244e-05     0.0667274        111584        103412   1.68106e+06   8.79896e-05
    0.0395395       295.143       289.939       95.1739       9.21327       10.9725             0       3.87399        8.1134             0       55.2575       12.9265             0       52.1347             0             0      0.214835   3.57736e-05      0.065566        111609        103417    1.6795e+06   6.55438e-05
      0.04004       293.511       289.919       93.0521       8.99004       11.1214             0        3.4834         7.968             0       56.4139       10.9127             0       49.3873             0             0      0.215103   2.41186e-05     0.0645199        111634        103421   1.67811e+06   4.41898e-05
    0.0405405       292.875        289.91       91.2482       8.59745       11.1816             0       3.06531       7.76218             0       57.4192       8.85638             0       46.3793             0             0       0.21505   1.93158e-05     0.0647997        111653        103426   1.67849e+06   3.53901e-05
     0.041041       292.265       289.901       89.4589       8.18525       11.2283             0       2.64705       7.55099             0       58.3797       6.79824             0       43.3554             0             0      0.214973   1.47126e-05     0.0651831        111673        103431   1.67904e+06   2.69562e-05
    0.0415415       291.945       289.898       87.8333       7.55358       11.1248             0       2.22689       7.27958             0       58.8369       4.72004             0       40.1531             0             0      0.214624   1.23441e-05     0.0667262        111687        103437   1.68144e+06   2.26166e-05
     0.042042       291.639       289.896       86.1816       6.92138       11.0107             0       1.80828       7.00318             0       59.2383       2.64981             0        36.941             0             0       0.21427   1.01539e-05     0.0682885        111701        103442     1.684e+06   1.86039e-05
    0.0425425       291.469       289.895       84.2464       6.28332       10.7793             0        1.4065       6.67241             0       59.0299      0.666443             0       33.6223             0             0      0.213863   9.90922e-06     0.0700598        111709        103448   1.68832e+06   1.81555e-05
     0.043043        291.31       289.894       82.2686       5.63705       10.5369             0       1.00628       6.33761             0        58.799      -1.29323             0       30.3034             0             0      0.213472    9.9679e-06     0.0717603        111717        103453   1.69277e+06    1.8263e-05
    0.0435435       291.257       289.895       79.8382       4.90349       10.1763             0      0.622619       5.96006             0        58.328       -3.0011             0       26.9835             0             0      0.213246   1.32509e-05     0.0727077        111715        103459   1.69845e+06   2.42781e-05
     0.044044       291.211       289.896       77.3708       4.14765       9.80518             0      0.241912       5.57902             0       57.8334      -4.66239             0       23.6789             0             0      0.213023    1.7255e-05     0.0736363        111712        103464   1.70424e+06   3.16143e-05
    0.0445445       291.239       289.895       74.5204       3.16095       9.32446             0     -0.108216       5.16178             0       57.0933      -5.84098             0       20.5317             0             0      0.212827   2.87326e-05     0.0743706        111704        103469   1.71122e+06   5.26435e-05
     0.045045       291.274       289.892       71.5706       2.19525       8.81764             0      -0.45262       4.74061             0        56.288      -6.95021             0       17.4116             0             0      0.212591   4.20054e-05     0.0752585        111694        103475   1.71822e+06   7.69617e-05
    0.0455455       291.381        289.87       67.6161       1.44192       8.04685             0     -0.739148       4.27964             0       54.8245      -7.35809             0       14.5645             0             0      0.211956   7.34294e-05     0.0776997        111676        103480   1.72541e+06   0.000134536