#           y             T         TMean   TPrime2Mean           U_x           U_y           U_z       UMean_x       UMean_y       UMean_z UPrime2Mea... UPrime2Mea... UPrime2Mea... UPrime2Mea... UPrime2Mea... UPrime2Mea...            O2           H2O          C3H8             p         pMean   pPrime2Mean           CO2
         0.04       288.908       288.359      0.115848       2.52142      0.119203             0      -4.73151      -7.35176             0       21.1971       6.76473             0       34.3014             0             0      0.218849   1.18446e-14     0.0484848        104682        103058        264162   2.17014e-14
     0.039975       288.908       288.358      0.116037       2.50237      0.138726             0      -4.72703      -7.35941             0       21.2172        6.6742             0       34.4531             0             0      0.218826   1.87627e-14      0.048584        104682        103058        264149   3.43768e-14
    0.0399499       288.907       288.358      0.116227       2.48331       0.15825             0      -4.72255      -7.36707             0       21.2372       6.58368             0       34.6047             0             0      0.218803   2.56809e-14     0.0486832        104682        103058        264136   4.70521e-14
    0.0399249       288.907       288.357      0.116416       2.46426      0.177774             0      -4.71807      -7.37473             0       21.2572       6.49315             0       34.7564             0             0       0.21878    3.2599e-14     0.0487824        104681        103058        264123   5.97274e-14
    0.0398999       288.906       288.357      0.116606        2.4452      0.197298             0      -4.71359      -7.38238             0       21.2772       6.40262             0       34.9081             0             0      0.218757   3.95171e-14     0.0488816        104681        103057        264110   7.24028e-14
    0.0398749       288.906       288.357      0.116795       2.42615      0.216821             0      -4.70911      -7.39004             0       21.2972        6.3121             0       35.0597             0             0      0.218735   4.64353e-14     0.0489808        104681        103057        264097   8.50781e-14
    0.0398498       288.905       288.356      0.116985        2.4071      0.236345             0      -4.70463       -7.3977             0       21.3172       6.22157             0       35.2114             0             0      0.218712   5.33534e-14     0.0490801        104680        103057        264085   9.77534e-14
    0.0398248       288.905       288.356      0.117174       2.38804      0.255869             0      -4.70015      -7.40535             0       21.3373       6.13105             0       35.3631             0             0      0.218689   6.02716e-14     0.0491793        104680        103057        264072   1.10429e-13
    0.0397998       288.904       288.355      0.117364       2.36899      0.275393             0      -4.69567      -7.41301             0       21.3573       6.04052             0       35.5147             0             0      0.218666   6.71897e-14     0.0492785        104679        103057        264059   1.23104e-13
    0.0397748       288.904       288.355      0.117553       2.34994      0.294916             0      -4.69118      -7.42067             0       21.3773          5.95             0       35.6664             0             0      0.218643   7.41079e-14     0.0493777        104679        103056        264046   1.35779e-13
    0.0397497       288.903       288.355      0.117742       2.33088       0.31444             0       -4.6867      -7.42832             0       21.3973       5.85947             0       35.8181             0             0       0.21862    8.1026e-14     0.0494769        104679        103056        264033   1.48455e-13
    0.0397247       288.902       288.354      0.117932       2.31183      0.333964             0      -4.68222      -7.43598             0       21.4173       5.76894             0       35.9697             0             0      0.218598   8.79442e-14     0.0495761        104678        103056        264020    1.6113e-13
    0.0396997       288.902       288.354      0.118121       2.29278      0.353488             0      -4.67774      -7.44364             0       21.4373       5.67842             0       36.1214             0             0      0.218575   9.48623e-14     0.0496753        104678        103056        264007   1.73805e-13
    0.0396747       288.901       288.353      0.118311       2.27372      0.373011             0      -4.67326      -7.45129             0       21.4574       5.58789             0       36.2731             0             0      0.218552    1.0178e-13     0.0497745        104678        103056        263995   1.86481e-13
    0.0396496       288.901       288.353        0.1185       2.25467      0.392535             0      -4.66878      -7.45895             0       21.4774       5.49737             0       36.4248             0             0      0.218529   1.08699e-13     0.0498737        104677        103056        263982   1.99156e-13
    0.0396246         288.9       288.353       0.11869       2.23562      0.412059             0       -4.6643      -7.46661             0       21.4974       5.40684             0       36.5764             0             0      0.218506   1.15617e-13     0.0499729        104677        103055        263969   2.11831e-13
    0.0395996         288.9       288.352      0.118879       2.21656      0.431583             0      -4.65982      -7.47426             0       21.5174       5.31632             0       36.7281             0             0      0.218484   1.22535e-13     0.0500721        104677        103055        263956   2.24507e-13
    0.0395746       288.899       288.352      0.119069       2.19751      0.451107             0      -4.65534      -7.48192             0       21.5374       5.22579             0       36.8798             0             0      0.218461   1.29453e-13     0.0501714        104676        103055        263943   2.37182e-13
    0.0395495       288.899       288.351      0.119258       2.17846       0.47063             0      -4.65086      -7.48958             0       21.5574       5.13526             0       37.0314             0             0      0.218438   1.36371e-13     0.0502706        104676        103055        263930   2.49857e-13
    0.0395245       288.898       288.351      0.119448        2.1594      0.490154             0      -4.64638      -7.49723             0       21.5775       5.04474             0       37.1831             0             0      0.218415   1.43289e-13     0.0503698        104676        103055        263917   2.62533e-13
    0.0394995       288.898        288.35      0.119637       2.14035      0.509678             0       -4.6419      -7.50489             0       21.5975       4.95421             0       37.3348             0             0      0.218392   1.50207e-13      0.050469        104675        103054        263904   2.75208e-13
    0.0394745       288.897        288.35      0.119827       2.12129      0.529202             0      -4.63741      -7.51255             0       21.6175       4.86369             0       37.4864             0             0      0.218369   1.57126e-13     0.0505682        104675        103054        263892   2.87883e-13
    0.0394494       288.897        288.35      0.120016       2.10224      0.548725             0      -4.63293       -7.5202             0       21.6375       4.77316             0       37.6381             0             0      0.218347   1.64044e-13     0.0506674        104675        103054        263879   3.00559e-13
    0.0394244       288.896       288.349      0.120206       2.08319      0.568249             0      -4.62845      -7.52786             0       21.6575       4.68264             0       37.7898             0             0      0.218324   1.70962e-13     0.0507666        104674        103054        263866   3.13234e-13
    0.0393994       288.896       288.349      0.120395       2.06413      0.587773             0      -4.62397      -7.53552             0       21.6775       4.59211             0       37.9415             0             0      0.218301    1.7788e-13     0.0508658        104674        103054        263853   3.25909e-13
    0.0393744       288.895       288.348      0.120585       2.04508      0.607297             0      -4.61949      -7.54317             0       21.6976       4.50158             0       38.0931             0             0      0.218278   1.84798e-13      0.050965        104673        103053        263840   3.38585e-13
    0.0393493       288.895       288.348      0.120774       2.02603       0.62682             0      -4.61501      -7.55083             0       21.7176       4.41106             0       38.2448             0             0      0.218255   1.91716e-13     0.0510642        104673        103053        263827    3.5126e-13
    0.0393243       288.894       288.348      0.120964       2.00697      0.646344             0      -4.61053      -7.55849             0       21.7376       4.32053             0       38.3965             0             0      0.218232   1.98634e-13     0.0511634        104673        103053        263814   3.63935e-13
    0.0392993       288.893       288.347      0.121153       1.98792      0.665868             0      -4.60605      -7.56614             0       21.7576       4.23001             0       38.5481             0             0       0.21821   2.05553e-13     0.0512626        104672        103053        263801   3.76611e-13
    0.0392743       288.893       288.347      0.121343       1.96887      0.685392             0      -4.60157       -7.5738             0       21.7776       4.13948             0       38.6998             0             0      0.218187   2.12471e-13     0.0513619        104672        103053        263789   3.89286e-13
    0.0392492       288.892       288.346      0.121532       1.94981      0.704915             0      -4.59709      -7.58146             0       21.7977       4.04896             0       38.8515             0             0      0.218164   2.19389e-13     0.0514611        104672        103052        263776   4.01961e-13
    0.0392242       288.892       288.346      0.121722       1.93076      0.724439             0      -4.59261      -7.58911             0       21.8177       3.95843             0       39.0031             0             0      0.218141   2.26307e-13     0.0515603        104671        103052        263763   4.14637e-13
    0.0391992       288.891       288.346      0.121911       1.91171      0.743963             0      -4.58813      -7.59677             0       21.8377        3.8679             0       39.1548             0             0      0.218118   2.33225e-13     0.0516595        104671        103052        263750   4.27312e-13
    0.0391742       288.891       288.345      0.122101       1.89265      0.763487             0      -4.58364      -7.60443             0       21.8577       3.77738             0       39.3065             0             0      0.218096   2.40143e-13     0.0517587        104671        103052        263737   4.39987e-13
    0.0391491        288.89       288.345       0.12229        1.8736       0.78301             0      -4.57916      -7.61208             0       21.8777       3.68685             0       39.4582             0             0      0.218073   2.47061e-13     0.0518579        104670        103052        263724   4.52663e-13
    0.0391241        288.89       288.344       0.12248       1.85454      0.802534             0      -4.57468      -7.61974             0       21.8977       3.59633             0       39.6098             0             0       0.21805    2.5398e-13     0.0519571        104670        103052        263711   4.65338e-13
    0.0390991       288.889       288.344      0.122669       1.83549      0.822058             0       -4.5702       -7.6274             0       21.9178        3.5058             0       39.7615             0             0      0.218027   2.60898e-13     0.0520563        104670        103051        263698   4.78013e-13
    0.0390741       288.889       288.343      0.122859       1.81644      0.841582             0      -4.56572      -7.63505             0       21.9378       3.41528             0       39.9132             0             0      0.218004   2.67816e-13     0.0521555        104669        103051        263686   4.90689e-13
     0.039049       288.888       288.343      0.123048       1.79738      0.861106             0      -4.56124      -7.64271             0       21.9578       3.32475             0       40.0648             0             0      0.217981   2.74734e-13     0.0522547        104669        103051        263673   5.03364e-13
     0.039024       288.888       288.343      0.123238       1.77833      0.880629             0      -4.55676      -7.65037             0       21.9778       3.23422             0       40.2165             0             0      0.217959   2.81652e-13     0.0523539        104669        103051        263660   5.16039e-13
     0.038999       288.887       288.342      0.123424       1.76048      0.900138             0      -4.55204      -7.65789             0       21.9977       3.14433             0       40.3687             0             0      0.217933   2.94359e-13      0.052464        104668        103051        263647   5.39321e-13
     0.038974       288.885       288.342      0.123538       1.77152       0.91929             0      -4.54172      -7.66223             0       22.0136       3.06966             0       40.5328             0             0      0.217848   4.46002e-13     0.0528343        104668        103050        263642   8.17159e-13
    0.0389489       288.883       288.341      0.123652       1.78256      0.938441             0      -4.53139      -7.66658             0       22.0296       2.99499             0       40.6969             0             0      0.217763   5.97645e-13     0.0532047        104668        103050        263636     1.095e-12
    0.0389239       288.882       288.341      0.123766       1.79361      0.957593             0      -4.52107      -7.67092             0       22.0456       2.92031             0       40.8611             0             0      0.217678   7.49287e-13      0.053575        104667        103050        263631   1.37283e-12
    0.0388989        288.88       288.341       0.12388       1.80465      0.976744             0      -4.51074      -7.67526             0       22.0615       2.84564             0       41.0252             0             0      0.217593    9.0093e-13     0.0539453        104667        103050        263625   1.65067e-12
    0.0388739       288.878        288.34      0.123994       1.81569      0.995896             0      -4.50041      -7.67961             0       22.0775       2.77097             0       41.1893             0             0      0.217507   1.05257e-12     0.0543156        104667        103050        263619   1.92851e-12
    0.0388488       288.876        288.34      0.124108       1.82673       1.01505             0      -4.49009      -7.68395             0       22.0935       2.69629             0       41.3535             0             0      0.217422   1.20422e-12      0.054686        104666        103049        263614   2.20635e-12
    0.0388238       288.874       288.339      0.124222       1.83777        1.0342             0      -4.47976      -7.68829             0       22.1094       2.62162             0       41.5176             0             0      0.217337   1.35586e-12     0.0550563        104666        103049        263608   2.48419e-12
    0.0387988       288.872       288.339      0.124336       1.84881       1.05335             0      -4.46944      -7.69264             0       22.1254       2.54695             0       41.6817             0             0      0.217252    1.5075e-12     0.0554266        104666        103049        263603   2.76202e-12
    0.0387738       288.871       288.338       0.12445       1.85986        1.0725             0      -4.45911      -7.69698             0       22.1414       2.47228             0       41.8459             0             0      0.217167   1.65914e-12      0.055797        104665        103049        263597   3.03986e-12
    0.0387487       288.869       288.338      0.124564        1.8709       1.09165             0      -4.44878      -7.70132             0       22.1573        2.3976             0         42.01             0             0      0.217082   1.81079e-12     0.0561673        104665        103049        263591    3.3177e-12
    0.0387237       288.867       288.338      0.124678       1.88194       1.11081             0      -4.43846      -7.70567             0       22.1733       2.32293             0       42.1741             0             0      0.216996   1.96243e-12     0.0565376        104665        103049        263586   3.59554e-12
    0.0386987       288.865       288.337      0.124792       1.89298       1.12996             0      -4.42813      -7.71001             0       22.1893       2.24826             0       42.3383             0             0      0.216911   2.11407e-12      0.056908        104665        103048        263580   3.87337e-12
    0.0386737       288.863       288.337      0.124906       1.90402       1.14911             0      -4.41781      -7.71436             0       22.2052       2.17358             0       42.5024             0             0      0.216826   2.26571e-12     0.0572783        104664        103048        263575   4.15121e-12
    0.0386486       288.862       288.336       0.12502       1.91507       1.16826             0      -4.40748       -7.7187             0       22.2212       2.09891             0       42.6665             0             0      0.216741   2.41736e-12     0.0576486        104664        103048        263569   4.42905e-12
    0.0386236        288.86       288.336      0.125134       1.92611       1.18741             0      -4.39715      -7.72304             0       22.2372       2.02424             0       42.8307             0             0      0.216656     2.569e-12      0.058019        104664        103048        263563   4.70689e-12
    0.0385986       288.858       288.335      0.125248       1.93715       1.20656             0      -4.38683      -7.72739             0       22.2531       1.94956             0       42.9948             0             0       0.21657   2.72064e-12     0.0583893        104663        103048        263558   4.98472e-12
    0.0385736       288.856       288.335      0.125362       1.94819       1.22572             0       -4.3765      -7.73173             0       22.2691       1.87489             0        43.159             0             0      0.216485   2.87229e-12     0.0587596        104663        103048        263552   5.26256e-12
    0.0385485       288.854       288.335      0.125476       1.95923       1.24487             0      -4.36618      -7.73607             0       22.2851       1.80022             0       43.3231             0             0        0.2164   3.02393e-12     0.0591299        104663        103047        263547    5.5404e-12
    0.0385235       288.852       288.334       0.12559       1.97027       1.26402             0      -4.35585      -7.74042             0        22.301       1.72555             0       43.4872             0             0      0.216315   3.17557e-12     0.0595003        104662        103047        263541   5.81824e-12
    0.0384985       288.851       288.334      0.125704       1.98132       1.28317             0      -4.34552      -7.74476             0        22.317       1.65087             0       43.6514             0             0       0.21623   3.32721e-12     0.0598706        104662        103047        263536   6.09608e-12
    0.0384735       288.849       288.333      0.125818       1.99236       1.30232             0       -4.3352       -7.7491             0        22.333        1.5762             0       43.8155             0             0      0.216145   3.47886e-12     0.0602409        104662        103047        263530   6.37391e-12
    0.0384484       288.847       288.333      0.125932        2.0034       1.32147             0      -4.32487      -7.75345             0       22.3489       1.50153             0       43.9796             0             0      0.216059    3.6305e-12     0.0606113        104661        103047        263524   6.65175e-12
    0.0384234       288.845       288.332      0.126046       2.01444       1.34062             0      -4.31454      -7.75779             0       22.3649       1.42685             0       44.1438             0             0      0.215974   3.78214e-12     0.0609816        104661        103046        263519   6.92959e-12
    0.0383984       288.843       288.332       0.12616       2.02548       1.35978             0      -4.30422      -7.76213             0       22.3809       1.35218             0       44.3079             0             0      0.215889   3.93378e-12     0.0613519        104661        103046        263513   7.20743e-12
    0.0383734       288.841       288.332      0.126274       2.03652       1.37893             0      -4.29389      -7.76648             0       22.3969       1.27751             0        44.472             0             0      0.215804   4.08543e-12     0.0617223        104661        103046        263508   7.48526e-12
    0.0383483        288.84       288.331      0.126388       2.04757       1.39808             0      -4.28357      -7.77082             0       22.4128       1.20283             0       44.6362             0             0      0.215719   4.23707e-12     0.0620926        104660        103046        263502    7.7631e-12
    0.0383233       288.838       288.331      0.126502       2.05861       1.41723             0      -4.27324      -7.77516             0       22.4288       1.12816             0       44.8003             0             0      0.215633   4.38871e-12     0.0624629        104660        103046        263496   8.04094e-12
    0.0382983       288.836        288.33      0.126616       2.06965       1.43638             0      -4.26291      -7.77951             0       22.4448       1.05349             0       44.9644             0             0      0.215548   4.54036e-12     0.0628333        104660        103046        263491   8.31878e-12
    0.0382733       288.834        288.33       0.12673       2.08069       1.45553             0      -4.25259      -7.78385             0       22.4607      0.978815             0       45.1286             0             0      0.215463     4.692e-12     0.0632036        104659        103045        263485   8.59662e-12
    0.0382482       288.832       288.329      0.126844       2.09173       1.47469             0      -4.24226       -7.7882             0       22.4767      0.904142             0       45.2927             0             0      0.215378   4.84364e-12     0.0635739        104659        103045        263480   8.87445e-12
    0.0382232       288.831       288.329      0.126958       2.10278       1.49384             0      -4.23194      -7.79254             0       22.4927      0.829469             0       45.4568             0             0      0.215293   4.99528e-12     0.0639442        104659        103045        263474   9.15229e-12
    0.0381982       288.829       288.329      0.127072       2.11382       1.51299             0      -4.22161      -7.79688             0       22.5086      0.754796             0        45.621             0             0      0.215208   5.14693e-12     0.0643146        104658        103045        263469   9.43013e-12
    0.0381732       288.827       288.328      0.127186       2.12486       1.53214             0      -4.21128      -7.80123             0       22.5246      0.680123             0       45.7851             0             0      0.215122   5.29857e-12     0.0646849        104658        103045        263463   9.70797e-12
    0.0381481       288.825       288.328        0.1273        2.1359       1.55129             0      -4.20096      -7.80557             0       22.5406       0.60545             0       45.9492             0             0      0.215037   5.45021e-12     0.0650552        104658        103045        263457    9.9858e-12
    0.0381231       288.823       288.327      0.127414       2.14694       1.57044             0      -4.19063      -7.80991             0       22.5565      0.530777             0       46.1134             0             0      0.214952   5.60185e-12     0.0654256        104657        103044        263452   1.02636e-11
    0.0380981       288.821       288.327      0.127528       2.15798        1.5896             0      -4.18031      -7.81426             0       22.5725      0.456104             0       46.2775             0             0      0.214867    5.7535e-12     0.0657959        104657        103044        263446   1.05415e-11
    0.0380731        288.82       288.326      0.127642       2.16903       1.60875             0      -4.16998       -7.8186             0       22.5885      0.381431             0       46.4416             0             0      0.214782   5.90514e-12     0.0661662        104657        103044        263441   1.08193e-11
     0.038048       288.818       288.326      0.127756       2.18007        1.6279             0      -4.15965      -7.82294             0       22.6044      0.306758             0       46.6058             0             0      0.214697   6.05678e-12     0.0665366        104656        103044        263435   1.10972e-11
     0.038023       288.816       288.326       0.12787       2.19111       1.64705             0      -4.14933      -7.82729             0       22.6204      0.232085             0       46.7699             0             0      0.214611   6.20843e-12     0.0669069        104656        103044        263429    1.1375e-11
     0.037998       288.814       288.325      0.127978       2.20283       1.66676             0      -4.13854      -7.83131             0       22.6348      0.158992             0       46.9344             0             0      0.214517   6.50257e-12     0.0673185        104656        103043        263424   1.19139e-11
     0.037973        288.81       288.325      0.128011       2.22241        1.6929             0      -4.12248      -7.83166             0       22.6307      0.104069             0       47.1033             0             0      0.214313   8.43544e-12     0.0682045        104656        103043        263423   1.54553e-11
    0.0379479       288.806       288.324      0.128044       2.24198       1.71904             0      -4.10641      -7.83201             0       22.6267     0.0491467             0       47.2722             0             0      0.214109   1.03683e-11     0.0690906        104655        103043        263422   1.89967e-11
    0.0379229       288.801       288.324      0.128077       2.26156       1.74519             0      -4.09035      -7.83236             0       22.6227   -0.00577608             0       47.4411             0             0      0.213905   1.23012e-11     0.0699766        104655        103043        263421   2.25381e-11
    0.0378979       288.797       288.324       0.12811       2.28113       1.77133             0      -4.07428      -7.83271             0       22.6186    -0.0606989             0         47.61             0             0      0.213701   1.42341e-11     0.0708627        104655        103043        263420   2.60795e-11
    0.0378729       288.793       288.323      0.128143       2.30071       1.79747             0      -4.05821      -7.83305             0       22.6146     -0.115622             0       47.7789             0             0      0.213498   1.61669e-11     0.0717487        104655        103043        263419   2.96208e-11
    0.0378478       288.789       288.323      0.128176       2.32028       1.82361             0      -4.04215       -7.8334             0       22.6105     -0.170544             0       47.9478             0             0      0.213294   1.80998e-11     0.0726348        104654        103043        263419   3.31622e-11
    0.0378228       288.785       288.323      0.128209       2.33986       1.84975             0      -4.02608      -7.83375             0       22.6065     -0.225467             0       48.1166             0             0       0.21309   2.00327e-11     0.0735209        104654        103043        263418   3.67036e-11
    0.0377978       288.781       288.322      0.128242       2.35944       1.87589             0      -4.01002       -7.8341             0       22.6025      -0.28039             0       48.2855             0             0      0.212886   2.19656e-11     0.0744069        104654        103042        263417    4.0245e-11
    0.0377728       288.776       288.322      0.128275       2.37901       1.90204             0      -3.99395      -7.83445             0       22.5984     -0.335313             0       48.4544             0             0      0.212682   2.38984e-11      0.075293        104654        103042        263416   4.37864e-11
    0.0377477       288.772       288.322      0.128309       2.39859       1.92818             0      -3.97789       -7.8348             0       22.5944     -0.390236             0       48.6233             0             0      0.212479   2.58313e-11      0.076179        104654        103042        263415   4.73278e-11
    0.0377227       288.768       288.321      0.128342       2.41816       1.95432             0      -3.96182      -7.83515             0       22.5904     -0.445158             0       48.7922             0             0      0.212275   2.77642e-11     0.0770651        104653        103042        263414   5.08691e-11