#           y             T         TMean   TPrime2Mean           U_x           U_y           U_z       UMean_x       UMean_y       UMean_z UPrime2Mea... UPrime2Mea... UPrime2Mea... UPrime2Mea... UPrime2Mea... UPrime2Mea...            O2           H2O          C3H8             p         pMean   pPrime2Mean           CO2
         0.02       1059.79       297.297       3906.41       21.2258       4.34604             0       21.7658     -0.816146             0       39.9568      -3.00193             0       19.6435             0             0    0.00422897     0.0314625      0.658652        104483        103096        217931     0.0576452
    0.0201677       1026.32       296.576       3475.23       20.5168       4.31546             0       21.7913     -0.801472             0       39.8202      -2.24432             0       20.0257             0             0    0.00722096     0.0301096      0.659531        104490        103096        218526     0.0551663
    0.0203353       992.847       295.856       3044.05       19.8078       4.28489             0       21.8168     -0.786797             0       39.6836       -1.4867             0       20.4079             0             0     0.0102129     0.0287566      0.660409        104497        103095        219121     0.0526875
     0.020503       959.375       295.135       2612.87       19.0988       4.25431             0       21.8424     -0.772123             0        39.547     -0.729085             0       20.7901             0             0     0.0132049     0.0274037      0.661288        104504        103095        219716     0.0502087
    0.0206707       925.902       294.414       2181.69       18.3899       4.22373             0       21.8679     -0.757448             0       39.4104     0.0285305             0       21.1724             0             0     0.0161969     0.0260507      0.662166        104511        103094        220311     0.0477298
    0.0208383       892.429       293.693        1750.5       17.6809       4.19316             0       21.8934     -0.742774             0       39.2739      0.786146             0       21.5546             0             0     0.0191889     0.0246978      0.663045        104518        103094        220906      0.045251
     0.021006       858.799       292.984       1329.27       16.9762        4.1591             0       21.9134     -0.727702             0       39.1429       1.55003             0       21.9383             0             0     0.0222832     0.0233336      0.663595        104525        103093        221503     0.0427514
    0.0211737       820.936       292.589       1175.77       16.3871       4.03125             0       21.7849     -0.701956             0       39.1627       2.48272             0        22.362             0             0     0.0281309     0.0216658      0.655288        104534        103093        222143     0.0396958
    0.0213413       783.073       292.194       1022.27        15.798       3.90341             0       21.6564     -0.676209             0       39.1825        3.4154             0       22.7856             0             0     0.0339787      0.019998      0.646982        104543        103092        222784     0.0366401
     0.021509        745.21       291.799       868.776       15.2089       3.77556             0       21.5279     -0.650462             0       39.2023       4.34808             0       23.2093             0             0     0.0398264     0.0183302      0.638676        104552        103092        223424     0.0335844
    0.0216767       707.346       291.404       715.279       14.6198       3.64771             0       21.3994     -0.624715             0       39.2221       5.28076             0        23.633             0             0     0.0456742     0.0166624      0.630369        104562        103091        224064     0.0305287
    0.0218443       669.483       291.009       561.781       14.0307       3.51987             0       21.2709     -0.598968             0       39.2419       6.21345             0       24.0566             0             0     0.0515219     0.0149946      0.622063        104571        103091        224704      0.027473
     0.022012       632.146       290.625       415.404       13.4774       3.38835             0       21.1313     -0.574236             0       39.2573       7.14323             0       24.4837             0             0     0.0575703     0.0133516       0.61263        104580        103090        225352     0.0244627
    0.0221797       601.624        290.39       361.304       13.3886       3.20927             0        20.847     -0.562653             0       39.2156       8.03552             0       24.9553             0             0     0.0662175     0.0120296      0.588602        104590        103090        226094     0.0220405
    0.0223473       571.102       290.155       307.204       13.2998       3.03018             0       20.5627      -0.55107             0        39.174       8.92781             0       25.4268             0             0     0.0748647     0.0107076      0.564573        104601        103089        226836     0.0196184
     0.022515        540.58       289.919       253.104       13.2109       2.85109             0       20.2785     -0.539488             0       39.1323       9.82009             0       25.8984             0             0     0.0835119    0.00938561      0.540545        104612        103089        227578     0.0171962
    0.0226827       510.057       289.684       199.004       13.1221       2.67201             0       19.9942     -0.527905             0       39.0906       10.7124             0       26.3699             0             0     0.0921591     0.0080636      0.516516        104622        103088        228320      0.014774
    0.0228504       479.535       289.449       144.904       13.0333       2.49292             0         19.71     -0.516322             0        39.049       11.6047             0       26.8415             0             0      0.100806    0.00674159      0.492488        104633        103088        229062     0.0123518
     0.023018       450.406       289.227       95.1018       12.9626       2.31635             0       19.4133      -0.50793             0       38.9833       12.4692             0       27.3338             0             0      0.109436    0.00548942      0.467819        104644        103088        229814     0.0100576
    0.0231857       432.848       289.113       81.0008       13.0427       2.16064             0       19.0138     -0.526046             0        38.718       13.1037             0       27.9986             0             0      0.117921    0.00481729      0.437828        104654        103087        230653    0.00882617
    0.0233534        415.29           289       66.8997       13.1228       2.00493             0       18.6142     -0.544161             0       38.4528       13.7382             0       28.6634             0             0      0.126405    0.00414516      0.407838        104664        103087        231492    0.00759471
     0.023521       397.731       288.887       52.7987       13.2029       1.84922             0       18.2147     -0.562276             0       38.1875       14.3727             0       29.3282             0             0       0.13489    0.00347303      0.377847        104674        103086        232331    0.00636324
    0.0236887       380.173       288.774       38.6977        13.283       1.69351             0       17.8151     -0.580391             0       37.9223       15.0072             0        29.993             0             0      0.143374     0.0028009      0.347857        104685        103086        233170    0.00513178
    0.0238564       362.615       288.661       24.5966       13.3631        1.5378             0       17.4156     -0.598506             0        37.657       15.6417             0       30.6579             0             0      0.151859    0.00212878      0.317866        104695        103085        234009    0.00390031
     0.024024       346.623       288.559       12.2504       13.4229       1.39551             0       17.0153     -0.622326             0       37.4229       16.2252             0       31.3531             0             0      0.159892    0.00152466       0.28914        104705        103085        234859    0.00279346
    0.0241917       339.997       288.524       10.3969       13.3612       1.33344             0       16.6104     -0.680251             0       37.3751       16.5038             0       32.2301             0             0      0.165227    0.00132721      0.267972        104714        103084        235773    0.00243169
    0.0243594        333.37        288.49        8.5433       13.2995       1.27136             0       16.2056     -0.738176             0       37.3274       16.7824             0       33.1071             0             0      0.170562    0.00112975      0.246804        104723        103084        236688    0.00206992
     0.024527       326.744       288.455       6.68972       13.2378       1.20929             0       15.8007     -0.796101             0       37.2796       17.0609             0       33.9842             0             0      0.175897     0.0009323      0.225635        104731        103084        237602    0.00170815
    0.0246947       320.118       288.421       4.83615       13.1762       1.14721             0       15.3959     -0.854026             0       37.2318       17.3395             0       34.8612             0             0      0.181232   0.000734846      0.204467        104740        103083        238516    0.00134637
    0.0248624       313.492       288.386       2.98258       13.1145       1.08513             0        14.991     -0.911951             0        37.184       17.6181             0       35.7382             0             0      0.186567   0.000537392      0.183299        104749        103083        239431   0.000984603
      0.02503       307.667       288.357       1.42468       13.0508        1.0284             0       14.6019     -0.976075             0       37.1234       17.8599             0       36.6532             0             0        0.1915    0.00036676      0.163604        104757        103082        240355   0.000671972
    0.0251977       305.514        288.35       1.22199       12.9782      0.996133             0        14.285      -1.06861             0       37.0039       17.9331             0       37.7422             0             0      0.194591   0.000319056      0.150658        104761        103081        241325    0.00058457
    0.0253654       303.362       288.343       1.01929       12.9055      0.963868             0        13.968      -1.16114             0       36.8844       18.0063             0       38.8312             0             0      0.197681   0.000271352      0.137713        104766        103080        242296   0.000497168
     0.025533       301.209       288.336      0.816598       12.8329      0.931603             0       13.6511      -1.25368             0       36.7649       18.0795             0       39.9202             0             0      0.200771   0.000223648      0.124768        104771        103079        243266   0.000409766
    0.0257007       299.057       288.329      0.613903       12.7602      0.899337             0       13.3342      -1.34621             0       36.6454       18.1527             0       41.0093             0             0      0.203861   0.000175945      0.111823        104775        103078        244236   0.000322364
    0.0258684       296.904       288.322      0.411208       12.6876      0.867072             0       13.0172      -1.43875             0       36.5259       18.2259             0       42.0983             0             0      0.206952   0.000128241     0.0988776        104780        103078        245206   0.000234962
     0.026036        295.06       288.316       0.24759       12.6401      0.822903             0       12.7119       -1.5354             0       36.3011       18.2623             0       43.2227             0             0      0.209729   8.83706e-05     0.0872115        104784        103077        246200   0.000161911
    0.0262037       294.343       288.314       0.22671       12.6847      0.735247             0       12.4488      -1.64709             0       35.6916       18.1646             0       44.4768             0             0      0.211365   7.71131e-05     0.0802176        104786        103075        247276   0.000141286
    0.0263714       293.626       288.313       0.20583       12.7292      0.647592             0       12.1858      -1.75877             0       35.0822       18.0669             0       45.7308             0             0         0.213   6.58556e-05     0.0732238        104788        103074        248353    0.00012066
     0.026539       292.909       288.312       0.18495       12.7738      0.559937             0       11.9227      -1.87046             0       34.4727       17.9691             0       46.9848             0             0      0.214636   5.45981e-05     0.0662299        104789        103073        249430   0.000100034
    0.0267067       292.192        288.31       0.16407       12.8183      0.472282             0       11.6597      -1.98215             0       33.8633       17.8714             0       48.2388             0             0      0.216271   4.33406e-05      0.059236        104791        103072        250506   7.94081e-05
    0.0268744       291.476       288.309       0.14319       12.8629      0.384626             0       11.3966      -2.09384             0       33.2538       17.7736             0       49.4929             0             0      0.217907   3.20832e-05     0.0522421        104793        103071        251583   5.87823e-05
     0.027042       290.879       288.308      0.127082        12.895      0.321677             0       11.1268      -2.20707             0         32.62       17.6211             0       50.7739             0             0      0.219287   2.29357e-05     0.0463345        104794        103069        252666   4.20224e-05
    0.0272097       290.641       288.307      0.125233       12.8901       0.33255             0       10.8369      -2.32491             0       31.9134       17.3045             0       52.1356             0             0      0.219906    2.0093e-05     0.0436727        104795        103068        253767   3.68141e-05
    0.0273774       290.403       288.306      0.123384       12.8851      0.343423             0        10.547      -2.44274             0       31.2068        16.988             0       53.4973             0             0      0.220526   1.72503e-05     0.0410109        104796        103066        254869   3.16057e-05
     0.027545       290.166       288.306      0.121535       12.8801      0.354296             0        10.257      -2.56058             0       30.5001       16.6715             0        54.859             0             0      0.221145   1.44076e-05     0.0383491        104797        103065        255970   2.63973e-05
    0.0277127       289.928       288.305      0.119686       12.8751       0.36517             0        9.9671      -2.67842             0       29.7935        16.355             0       56.2207             0             0      0.221764   1.15649e-05     0.0356873        104797        103063        257072    2.1189e-05
    0.0278804        289.69       288.304      0.117837       12.8702      0.376043             0       9.67717      -2.79625             0       29.0869       16.0385             0       57.5825             0             0      0.222383   8.72216e-06     0.0330255        104798        103062        258173   1.59806e-05
     0.028048       289.496       288.304       0.11659       12.8004      0.445935             0       9.38306      -2.91645             0       28.3958       15.6711             0       58.9275             0             0      0.222812   6.48416e-06     0.0311859        104799        103060        259237   1.18802e-05
    0.0282157       289.408       288.304       0.11684       12.5692      0.662758             0       9.07857      -3.04253             0       27.7434       15.1769             0       60.2312             0             0      0.222766   5.75161e-06     0.0313935        104800        103059        260207    1.0538e-05
    0.0283834       289.321       288.304      0.117091       12.3381      0.879581             0       8.77408      -3.16862             0        27.091       14.6828             0       61.5349             0             0       0.22272   5.01905e-06      0.031601        104801        103057        261177   9.19584e-06
    0.0285511       289.234       288.304      0.117341       12.1069        1.0964             0       8.46958       -3.2947             0       26.4386       14.1886             0       62.8386             0             0      0.222675    4.2865e-06     0.0318086        104802        103055        262147   7.85366e-06
    0.0287187       289.147       288.304      0.117591       11.8758       1.31323             0       8.16509      -3.42078             0       25.7861       13.6945             0       64.1423             0             0      0.222629   3.55394e-06     0.0320161        104803        103054        263117   6.51148e-06
    0.0288864       289.059       288.304      0.117841       11.6446       1.53005             0       7.86059      -3.54687             0       25.1337       13.2003             0        65.446             0             0      0.222583   2.82138e-06     0.0322237        104804        103052        264087    5.1693e-06
    0.0290541       288.984       288.304      0.118146       11.3518       1.78846             0       7.55759      -3.67491             0        24.511       12.6671             0       66.6655             0             0      0.222288   2.25241e-06     0.0335116        104805        103050        264961   4.12683e-06
    0.0292217       288.932       288.304      0.118566       10.9293       2.13428             0       7.25771      -3.80706             0       23.9505       12.0517             0        67.708             0             0       0.22147   2.02725e-06     0.0370705        104806        103049        265634   3.71429e-06
    0.0293894        288.88       288.304      0.118985       10.5067       2.48011             0       6.95783      -3.93921             0         23.39       11.4363             0       68.7506             0             0      0.220652   1.80208e-06     0.0406293        104808        103047        266307   3.30175e-06
    0.0295571       288.828       288.304      0.119405       10.0842       2.82593             0       6.65796      -4.07137             0       22.8296       10.8209             0       69.7931             0             0      0.219835   1.57692e-06     0.0441881        104809        103046        266980   2.88922e-06
    0.0297247       288.776       288.304      0.119824       9.66164       3.17175             0       6.35808      -4.20352             0       22.2691       10.2055             0       70.8356             0             0      0.219017   1.35176e-06     0.0477469        104811        103044        267652   2.47668e-06
    0.0298924       288.724       288.304      0.120244        9.2391       3.51758             0        6.0582      -4.33568             0       21.7087       9.59014             0       71.8781             0             0      0.218199    1.1266e-06     0.0513058        104812        103043        268325   2.06414e-06
    0.0300601       288.679       288.304      0.120667        8.8088       3.84702             0       5.76362      -4.46777             0       21.2274        8.9554             0       72.7783             0             0      0.217106   9.44637e-07     0.0560605        104814        103041        268864   1.73075e-06
    0.0302277       288.646       288.303      0.121095       8.36459       4.14712             0       5.47853      -4.59976             0        20.888         8.286             0       73.4233             0             0       0.21552   8.40067e-07     0.0629577        104814        103040        269162   1.53916e-06
    0.0303954       288.613       288.303      0.121523       7.92038       4.44722             0       5.19344      -4.73175             0       20.5487       7.61661             0       74.0683             0             0      0.213933   7.35497e-07      0.069855        104814        103039        269460   1.34757e-06
    0.0305631        288.58       288.302      0.121951       7.47617       4.74731             0       4.90835      -4.86374             0       20.2093       6.94721             0       74.7133             0             0      0.212347   6.30928e-07     0.0767523        104815        103037        269758   1.15598e-06
    0.0307307       288.547       288.302      0.122379       7.03196       5.04741             0       4.62326      -4.99572             0       19.8699       6.27781             0       75.3583             0             0      0.210761   5.26358e-07     0.0836496        104815        103036        270055   9.64386e-07
    0.0308984       288.513       288.301      0.122807       6.58774       5.34751             0       4.33817      -5.12771             0       19.5305       5.60842             0       76.0033             0             0      0.209175   4.21789e-07     0.0905468        104815        103035        270353   7.72795e-07
    0.0310661       288.489       288.301      0.123201       6.18771       5.58151             0       4.06065      -5.25657             0       19.2975       4.95471             0       76.4846             0             0      0.207586   3.41071e-07     0.0974542        104815        103034        270531   6.24906e-07
    0.0312337       288.477       288.301      0.123543        5.8556       5.71388             0       3.79478      -5.38061             0        19.228       4.32513             0       76.7141             0             0      0.205994   2.97035e-07      0.104377        104812        103033        270522   5.44223e-07
    0.0314014       288.465         288.3      0.123885        5.5235       5.84625             0       3.52891      -5.50464             0       19.1585       3.69556             0       76.9436             0             0      0.204402   2.52999e-07        0.1113        104809        103032        270513    4.6354e-07
    0.0315691       288.454         288.3      0.124227        5.1914       5.97861             0       3.26304      -5.62868             0        19.089       3.06599             0        77.173             0             0       0.20281   2.08962e-07      0.118223        104806        103031        270504   3.82858e-07
    0.0317367       288.442         288.3       0.12457       4.85929       6.11098             0       2.99717      -5.75272             0       19.0195       2.43641             0       77.4025             0             0      0.201217   1.64926e-07      0.125146        104803        103030        270495   3.02175e-07
    0.0319044        288.43         288.3      0.124912       4.52719       6.24335             0        2.7313      -5.87676             0       18.9499       1.80684             0        77.632             0             0      0.199625    1.2089e-07      0.132069        104800        103029        270487   2.21493e-07
    0.0320721       288.423       288.299      0.125171        4.2648       6.29974             0       2.47383      -5.99501             0        18.979       1.22431             0       77.7126             0             0      0.198357   9.01161e-08      0.137584        104795        103028        270390   1.65109e-07
    0.0322397       288.421       288.299       0.12532       4.09486       6.25538             0       2.22753      -6.10559             0       19.1388      0.704195             0       77.5955             0             0      0.197518   7.69334e-08      0.141231        104789        103027        270177   1.40956e-07
    0.0324074       288.419       288.298      0.125469       3.92493       6.21101             0       1.98122      -6.21617             0       19.2985      0.184078             0       77.4785             0             0      0.196679   6.37508e-08      0.144878        104782        103026        269963   1.16803e-07
    0.0325751       288.417       288.298      0.125618         3.755       6.16665             0       1.73492      -6.32674             0       19.4583      -0.33604             0       77.3615             0             0       0.19584   5.05682e-08      0.148525        104775        103026        269750   9.26504e-08
    0.0327427       288.414       288.298      0.125767       3.58507       6.12228             0       1.48861      -6.43732             0       19.6181     -0.856157             0       77.2444             0             0      0.195001   3.73856e-08      0.152172        104769        103025        269537   6.84974e-08
    0.0329104       288.412       288.297      0.125916       3.41514       6.07792             0       1.24231       -6.5479             0       19.7779      -1.37627             0       77.1274             0             0      0.194162    2.4203e-08      0.155818        104762        103024        269323   4.43443e-08
    0.0330781        288.41       288.297      0.126057       3.32044        5.9742             0       1.00647      -6.65107             0       19.9644      -1.79627             0        76.874             0             0      0.193656   1.60143e-08       0.15802        104755        103024        269081   2.93412e-08
    0.0332457       288.408       288.296      0.126188       3.31208       5.80238             0      0.782639      -6.74573             0       20.1815      -2.10137             0       76.4642             0             0      0.193531   1.35559e-08      0.158562        104746        103024        268805   2.48369e-08
    0.0334134       288.406       288.296      0.126319       3.30371       5.63057             0       0.55881      -6.84039             0       20.3987      -2.40647             0       76.0544             0             0      0.193406   1.10974e-08      0.159104        104737        103023        268529   2.03326e-08
    0.0335811       288.403       288.295      0.126451       3.29535       5.45875             0       0.33498      -6.93505             0       20.6158      -2.71157             0       75.6445             0             0      0.193282   8.63902e-09      0.159646        104728        103023        268253   1.58283e-08
    0.0337487       288.401       288.295      0.126582       3.28699       5.28693             0      0.111151      -7.02971             0        20.833      -3.01667             0       75.2347             0             0      0.193157    6.1806e-09      0.160188        104720        103022        267977    1.1324e-08
    0.0339164       288.399       288.294      0.126713       3.27862       5.11512             0     -0.112679      -7.12437             0       21.0502      -3.32177             0       74.8249             0             0      0.193032   3.72217e-09       0.16073        104711        103022        267701   6.81972e-09
    0.0340841       288.397       288.293      0.126862       3.32734       4.90587             0     -0.323858      -7.20978             0       21.2276      -3.49171             0       74.2961             0             0      0.193158   2.32483e-09      0.160183        104703        103022        267445   4.25952e-09
    0.0342518       288.396       288.293      0.127028       3.43281        4.6594             0     -0.522462      -7.28601             0       21.3657      -3.52729             0       73.6489             0             0      0.193533   1.98225e-09      0.158551        104695        103022        267207   3.63186e-09
    0.0344194       288.395       288.292      0.127194       3.53827       4.41294             0     -0.721066      -7.36224             0       21.5038      -3.56287             0       73.0018             0             0      0.193909   1.63967e-09       0.15692        104687        103022        266969   3.00419e-09
    0.0345871       288.395       288.292      0.127361       3.64374       4.16648             0      -0.91967      -7.43847             0       21.6418      -3.59846             0       72.3546             0             0      0.194284    1.2971e-09      0.155289        104679        103022        266732   2.37652e-09
    0.0347548       288.394       288.291      0.127527        3.7492       3.92002             0      -1.11827       -7.5147             0       21.7799      -3.63404             0       71.7075             0             0      0.194659   9.54518e-10      0.153658        104671        103022        266494   1.74885e-09
    0.0349224       288.393        288.29      0.127693       3.85466       3.67355             0      -1.31688      -7.59093             0        21.918      -3.66962             0       71.0603             0             0      0.195034    6.1194e-10      0.152027        104664        103022        266256   1.12119e-09
    0.0350901       288.399        288.29      0.127921       3.95493       3.41792             0      -1.50412       -7.6553             0       22.0087      -3.58758             0       70.3078             0             0      0.195793   4.19975e-10      0.148728        104658        103022        266064   7.69472e-10
    0.0352578       288.412        288.29      0.128203       4.05072       3.15439             0      -1.68157      -7.70946             0       22.0587      -3.40424             0       69.4646             0             0      0.196882   3.57705e-10      0.143994        104653        103023        265912   6.55381e-10