#           y             T         TMean   TPrime2Mean           U_x           U_y           U_z       UMean_x       UMean_y       UMean_z UPrime2Mea... UPrime2Mea... UPrime2Mea... UPrime2Mea... UPrime2Mea... UPrime2Mea...            O2           H2O          C3H8             p         pMean   pPrime2Mean           CO2
         0.03       295.483       288.557      0.543205       9.21415       4.87951             0       4.02002       1.03422             0       19.4595      -1.70432             0       50.7777             0             0      0.163121   5.60065e-08      0.290776        104423        103107        281449   1.02614e-07
    0.0301702       295.692       288.557       0.55298       9.36708       4.83563             0       3.98914       1.07071             0       19.5389      -1.68765             0       50.6877             0             0      0.162917   5.69851e-08      0.291662        104422        103107        280965   1.04407e-07
    0.0303403       295.901       288.556      0.562755       9.52001       4.79174             0       3.95826        1.1072             0       19.6183      -1.67098             0       50.5978             0             0      0.162713   5.79636e-08      0.292548        104420        103107        280481     1.062e-07
    0.0305105       296.111       288.556      0.572531       9.67293       4.74786             0       3.92737        1.1437             0       19.6977      -1.65431             0       50.5079             0             0      0.162509   5.89422e-08      0.293434        104419        103108        279997   1.07993e-07
    0.0306807        296.32       288.555      0.582306       9.82586       4.70398             0       3.89649       1.18019             0        19.777      -1.63764             0        50.418             0             0      0.162306   5.99208e-08       0.29432        104418        103108        279513   1.09786e-07
    0.0308509       296.529       288.555      0.592082       9.97878       4.66009             0       3.86561       1.21668             0       19.8564      -1.62097             0        50.328             0             0      0.162102   6.08993e-08      0.295206        104417        103108        279029   1.11579e-07
     0.031021        296.74       288.554      0.601581       10.1359       4.61604             0       3.83681       1.25362             0       19.9549      -1.59961             0       50.2261             0             0      0.161907   6.19692e-08      0.296052        104416        103108        278542   1.13539e-07
    0.0311912       296.959       288.553      0.609124       10.3225       4.57078             0       3.82284       1.29378             0       20.1892      -1.54497             0        50.039             0             0      0.161776    6.3687e-08      0.296619        104416        103109        278036   1.16686e-07
    0.0313614       297.179       288.551      0.616667       10.5091       4.52553             0       3.80886       1.33394             0       20.4234      -1.49033             0       49.8519             0             0      0.161646   6.54048e-08      0.297187        104416        103109        277530   1.19834e-07
    0.0315315       297.398        288.55      0.624209       10.6957       4.48027             0       3.79489        1.3741             0       20.6577      -1.43569             0       49.6648             0             0      0.161516   6.71226e-08      0.297754        104416        103110        277024   1.22981e-07
    0.0317017       297.618       288.549      0.631752       10.8823       4.43501             0       3.78092       1.41426             0       20.8919      -1.38105             0       49.4777             0             0      0.161385   6.88404e-08      0.298321        104416        103110        276517   1.26128e-07
    0.0318719       297.837       288.547      0.639295       11.0689       4.38976             0       3.76694       1.45442             0       21.1262      -1.32641             0       49.2906             0             0      0.161255   7.05582e-08      0.298888        104415        103111        276011   1.29276e-07
     0.032042       298.046       288.546      0.645463       11.2576       4.34286             0       3.75621       1.49484             0       21.4045      -1.25759             0       49.0837             0             0      0.161143   7.23509e-08      0.299375        104416        103111        275507    1.3256e-07
    0.0322122       298.222       288.544      0.647443       11.4528       4.29094             0       3.75535       1.53604             0       21.8174      -1.14555             0       48.8165             0             0      0.161087   7.43719e-08      0.299617        104416        103112        275011   1.36263e-07
    0.0323824       298.398       288.542      0.649423       11.6479       4.23902             0        3.7545       1.57725             0       22.2302       -1.0335             0       48.5494             0             0      0.161031    7.6393e-08       0.29986        104417        103112        274516   1.39966e-07
    0.0325526       298.574        288.54      0.651403       11.8431       4.18711             0       3.75365       1.61845             0       22.6431     -0.921454             0       48.2822             0             0      0.160975    7.8414e-08      0.300103        104418        103113        274020   1.43669e-07
    0.0327227        298.75       288.538      0.653383       12.0382       4.13519             0       3.75279       1.65966             0       23.0559     -0.809407             0        48.015             0             0      0.160919    8.0435e-08      0.300346        104419        103114        273524   1.47372e-07
    0.0328929       298.926       288.536      0.655364       12.2334       4.08327             0       3.75194       1.70086             0       23.4688     -0.697361             0       47.7478             0             0      0.160863   8.24561e-08      0.300588        104419        103114        273028   1.51075e-07
    0.0330631       299.074       288.534      0.654729       12.4245       4.02558             0       3.75372       1.74173             0       23.9758     -0.564968             0        47.458             0             0      0.160835   8.45225e-08      0.300711        104420        103115        272542   1.54861e-07
    0.0332332       299.175       288.531      0.649655       12.6086       3.95809             0       3.75997       1.78201             0       24.6426     -0.398017             0       47.1296             0             0      0.160854   8.66659e-08      0.300628        104422        103115        272074   1.58788e-07
    0.0334034       299.275       288.529       0.64458       12.7927       3.89061             0       3.76622       1.82229             0       25.3094     -0.231066             0       46.8013             0             0      0.160873   8.88093e-08      0.300545        104423        103116        271606   1.62715e-07
    0.0335736       299.376       288.526      0.639506       12.9768       3.82312             0       3.77247       1.86257             0       25.9762    -0.0641149             0       46.4729             0             0      0.160892   9.09527e-08      0.300462        104425        103117        271138   1.66642e-07
    0.0337437       299.477       288.524      0.634431       13.1609       3.75563             0       3.77872       1.90285             0       26.6431      0.102836             0       46.1446             0             0      0.160911   9.30962e-08      0.300379        104426        103118        270669    1.7057e-07
    0.0339139       299.577       288.521      0.629357        13.345       3.68814             0       3.78497       1.94313             0       27.3099      0.269787             0       45.8163             0             0       0.16093   9.52396e-08      0.300296        104428        103118        270201   1.74497e-07
    0.0340841       299.622       288.519      0.621244       13.5201       3.60995             0       3.79357        1.9819             0       28.1006      0.458894             0       45.4605             0             0      0.161028    9.7455e-08      0.299872        104429        103119        269751   1.78556e-07
    0.0342543       299.609       288.516       0.61002       13.6861       3.52081             0       3.80459       2.01912             0       29.0181      0.670683             0       45.0766             0             0      0.161206   9.97441e-08      0.299098        104431        103120        269319    1.8275e-07
    0.0344244       299.597       288.513      0.598796        13.852       3.43166             0        3.8156       2.05634             0       29.9356      0.882473             0       44.6927             0             0      0.161384   1.02033e-07      0.298324        104433        103121        268887   1.86944e-07
    0.0345946       299.584       288.511      0.587573       14.0179       3.34252             0       3.82662       2.09355             0       30.8531       1.09426             0       44.3088             0             0      0.161562   1.04322e-07      0.297549        104434        103121        268455   1.91138e-07
    0.0347648       299.571       288.508      0.576349       14.1839       3.25337             0       3.83763       2.13077             0       31.7706       1.30605             0        43.925             0             0       0.16174   1.06611e-07      0.296775        104436        103122        268023   1.95332e-07
    0.0349349       299.559       288.505      0.565125       14.3498       3.16423             0       3.84865       2.16799             0       32.6882       1.51784             0       43.5411             0             0      0.161918   1.08901e-07      0.296001        104438        103123        267591   1.99526e-07
    0.0351051       299.453       288.503      0.552081       14.5068       3.06458             0       3.86307       2.20235             0       33.6844       1.73465             0       43.1251             0             0      0.162279   1.11249e-07      0.294429        104439        103124        267179   2.03828e-07
    0.0352753        299.29       288.501      0.537909       14.6583       2.95844             0       3.87959       2.23494             0       34.7294       1.95458             0       42.6894             0             0      0.162754   1.13633e-07      0.292363        104441        103125        266780   2.08197e-07
    0.0354454       299.126       288.499      0.523738       14.8098        2.8523             0       3.89611       2.26753             0       35.7744        2.1745             0       42.2536             0             0      0.163229   1.16017e-07      0.290297        104442        103126        266381   2.12566e-07
    0.0356156       298.963       288.497      0.509566       14.9613       2.74616             0       3.91263       2.30013             0       36.8194       2.39442             0       41.8179             0             0      0.163704   1.18402e-07       0.28823        104444        103127        265982   2.16935e-07
    0.0357858         298.8       288.494      0.495394       15.1128       2.64001             0       3.92916       2.33272             0       37.8644       2.61434             0       41.3821             0             0      0.164179   1.20786e-07      0.286164        104445        103128        265583   2.21303e-07
     0.035956       298.637       288.492      0.481223       15.2642       2.53387             0       3.94568       2.36531             0       38.9093       2.83426             0       40.9463             0             0      0.164654   1.23171e-07      0.284098        104447        103129        265184   2.25672e-07
    0.0361261       298.383       288.491      0.467488       15.4076        2.4336             0       3.96623       2.39363             0        39.952       3.02147             0       40.4844             0             0      0.165403   1.25176e-07      0.280841        104448        103130        264828   2.29347e-07
    0.0362963       298.097       288.489      0.453905       15.5482       2.33538             0       3.98819       2.42046             0       40.9938       3.19726             0       40.0132             0             0      0.166248   1.27049e-07      0.277167        104449        103131        264487   2.32778e-07
    0.0364665       297.812       288.488      0.440323       15.6888       2.23715             0       4.01015        2.4473             0       42.0357       3.37305             0       39.5421             0             0      0.167093   1.28923e-07      0.273494        104451        103132        264145    2.3621e-07
    0.0366366       297.526       288.487       0.42674       15.8293       2.13893             0       4.03211       2.47413             0       43.0775       3.54884             0        39.071             0             0      0.167937   1.30796e-07       0.26982        104452        103133        263804   2.39642e-07
    0.0368068       297.241       288.485      0.413158       15.9699       2.04071             0       4.05407       2.50096             0       44.1194       3.72463             0       38.5999             0             0      0.168782   1.32669e-07      0.266146        104453        103134        263463   2.43074e-07
     0.036977       296.955       288.484      0.399575       16.1104       1.94248             0       4.07602       2.52779             0       45.1612       3.90042             0       38.1288             0             0      0.169627   1.34542e-07      0.262473        104454        103135        263122   2.46506e-07
    0.0371471       296.631       288.483      0.387885       16.2312       1.88137             0       4.10264       2.54763             0       46.0986       4.03856             0       37.6353             0             0      0.170745   1.34893e-07      0.257609        104456        103136        262836    2.4715e-07
    0.0373173       296.301       288.482      0.376491       16.3489       1.82606             0       4.12999       2.56639             0       47.0197       4.17081             0       37.1384             0             0      0.171906   1.35007e-07       0.25256        104457        103137        262558   2.47358e-07
    0.0374875        295.97       288.482      0.365097       16.4666       1.77074             0       4.15734       2.58514             0       47.9408       4.30305             0       36.6415             0             0      0.173067    1.3512e-07       0.24751        104458        103138        262280   2.47565e-07
    0.0376577        295.64       288.481      0.353704       16.5842       1.71543             0        4.1847       2.60389             0       48.8618        4.4353             0       36.1446             0             0      0.174229   1.35234e-07       0.24246        104459        103140        262001   2.47773e-07
    0.0378278        295.31        288.48       0.34231       16.7019       1.66012             0       4.21205       2.62264             0       49.7829       4.56755             0       35.6477             0             0       0.17539   1.35347e-07      0.237411        104461        103141        261723   2.47981e-07
     0.037998       294.979        288.48      0.330916       16.8196       1.60481             0        4.2394        2.6414             0        50.704       4.69979             0       35.1508             0             0      0.176551    1.3546e-07      0.232361        104462        103142        261445   2.48189e-07
    0.0381682       294.673       288.479      0.321606       16.8873       1.62154             0       4.27277       2.64962             0       51.4046         4.848             0       34.6238             0             0      0.177916   1.33261e-07      0.226426        104464        103143        261236   2.44158e-07
    0.0383383       294.367       288.479       0.31232       16.9545       1.63913             0       4.30621       2.65771             0       52.1027       4.99639             0       34.0965             0             0      0.179284   1.31033e-07       0.22048        104465        103144        261028   2.40077e-07
    0.0385085        294.06       288.478      0.303035       17.0217       1.65672             0       4.33965       2.66581             0       52.8007       5.14478             0       33.5691             0             0      0.180651   1.28806e-07      0.214534        104467        103146        260820   2.35996e-07
    0.0386787       293.754       288.477      0.293749       17.0888       1.67431             0        4.3731        2.6739             0       53.4987       5.29318             0       33.0418             0             0      0.182019   1.26578e-07      0.208588        104469        103147        260612   2.31915e-07
    0.0388488       293.448       288.477      0.284463        17.156        1.6919             0       4.40654       2.68199             0       54.1968       5.44157             0       32.5145             0             0      0.183386   1.24351e-07      0.202642        104471        103148        260403   2.27834e-07
     0.039019       293.144       288.476      0.275385       17.2152       1.71747             0       4.44048       2.68881             0       54.8677       5.59613             0       31.9826             0             0      0.184772   1.21857e-07      0.196616        104473        103149        260202   2.23265e-07
    0.0391892       292.857       288.475      0.267954       17.2108       1.80651             0       4.47835       2.68547             0       55.3229       5.79971             0       31.4147             0             0      0.186305   1.17248e-07      0.189954        104475        103150        260061   2.14821e-07
    0.0393594        292.57       288.475      0.260522       17.2064       1.89556             0       4.51622       2.68213             0       55.7781       6.00328             0       30.8469             0             0      0.187837    1.1264e-07      0.183292        104477        103152        259920   2.06377e-07
    0.0395295       292.284       288.474      0.253091        17.202        1.9846             0       4.55409        2.6788             0       56.2334       6.20686             0        30.279             0             0      0.189369   1.08031e-07       0.17663        104480        103153        259778   1.97933e-07
    0.0396997       291.997       288.473      0.245659       17.1976       2.07364             0       4.59196       2.67546             0       56.6886       6.41044             0       29.7112             0             0      0.190902   1.03422e-07      0.169969        104482        103154        259637   1.89488e-07
    0.0398699       291.711       288.472      0.238228       17.1932       2.16268             0       4.62983       2.67212             0       57.1438       6.61401             0       29.1433             0             0      0.192434   9.88131e-08      0.163307        104484        103155        259495   1.81044e-07
      0.04004       291.433       288.471      0.231329       17.1693        2.2617             0       4.66811       2.66662             0       57.5523       6.82315             0       28.5669             0             0      0.193959   9.38895e-08       0.15668        104487        103157        259369   1.72023e-07
    0.0402102       291.187        288.47      0.226161        17.082       2.39314             0       4.70771       2.65412             0       57.8088       7.05035             0       27.9626             0             0      0.195457   8.79426e-08      0.150168        104489        103158        259294   1.61127e-07
    0.0403804        290.94       288.469      0.220993       16.9947       2.52458             0       4.74731       2.64161             0       58.0653       7.27754             0       27.3584             0             0      0.196955   8.19958e-08      0.143655        104492        103159        259218   1.50232e-07
    0.0405506       290.694       288.468      0.215826       16.9074       2.65602             0       4.78691       2.62911             0       58.3218       7.50474             0       26.7541             0             0      0.198453   7.60489e-08      0.137142        104495        103161        259143   1.39336e-07
    0.0407207       290.447       288.467      0.210658       16.8201       2.78746             0       4.82651        2.6166             0       58.5783       7.73194             0       26.1498             0             0      0.199951   7.01021e-08       0.13063        104497        103162        259067    1.2844e-07
    0.0408909         290.2       288.466      0.205491       16.7327        2.9189             0       4.86611       2.60409             0       58.8348       7.95914             0       25.5455             0             0      0.201449   6.41553e-08      0.124117        104500        103163        258992   1.17544e-07
    0.0410611       289.988       288.465       0.20102       16.6207        3.0517             0        4.9055       2.58943             0       59.0453       8.16742             0       24.9354             0             0      0.202808   5.85202e-08      0.118213        104503        103164        258939    1.0722e-07
    0.0412312       289.837       288.463      0.197794       16.4645       3.18693             0        4.9445       2.57093             0       59.1735       8.34192             0       24.3149             0             0      0.203916   5.34422e-08      0.113394        104506        103166        258927    9.7916e-08
    0.0414014       289.686       288.462      0.194567       16.3083       3.32216             0        4.9835       2.55242             0       59.3016       8.51642             0       23.6944             0             0      0.205025   4.83642e-08      0.108575        104509        103167        258915   8.86121e-08
    0.0415716       289.535       288.461      0.191341       16.1521       3.45739             0        5.0225       2.53392             0       59.4298       8.69091             0       23.0739             0             0      0.206134   4.32861e-08      0.103757        104511        103168        258903   7.93083e-08
    0.0417417       289.384       288.459      0.188115        15.996       3.59262             0       5.06151       2.51541             0        59.558       8.86541             0       22.4534             0             0      0.207242   3.82081e-08     0.0989383        104514        103170        258891   7.00044e-08
    0.0419119       289.233       288.458      0.184889       15.8398       3.72785             0       5.10051       2.49691             0       59.6861       9.03991             0       21.8328             0             0      0.208351   3.31301e-08     0.0941198        104517        103171        258879   6.07005e-08
    0.0420821       289.124       288.456      0.182396       15.6922       3.82642             0       5.13681       2.47632             0       59.7867       9.15807             0       21.2144             0             0      0.209204   2.90557e-08     0.0904116        104520        103172        258890   5.32355e-08
    0.0422523        289.06       288.455      0.180689        15.554       3.88566             0        5.1702       2.45349             0       59.8576       9.21579             0       20.5982             0             0      0.209783   2.60585e-08     0.0878952        104522        103174        258925    4.7744e-08
    0.0424224       288.995       288.453      0.178982       15.4157       3.94491             0        5.2036       2.43067             0       59.9285        9.2735             0        19.982             0             0      0.210362   2.30613e-08     0.0853788        104525        103175        258961   4.22525e-08
    0.0425926       288.931       288.451      0.177276       15.2775       4.00415             0         5.237       2.40784             0       59.9993       9.33122             0       19.3657             0             0      0.210941    2.0064e-08     0.0828624        104528        103176        258997    3.6761e-08
    0.0427628       288.867       288.449      0.175569       15.1392       4.06339             0       5.27039       2.38501             0       60.0702       9.38893             0       18.7495             0             0       0.21152   1.70668e-08      0.080346        104531        103178        259033   3.12695e-08
    0.0429329       288.802       288.447      0.173862       15.0009       4.12263             0       5.30379       2.36219             0       60.1411       9.44665             0       18.1333             0             0      0.212099   1.40695e-08     0.0778296        104534        103179        259068    2.5778e-08
    0.0431031       288.764       288.444      0.173063       14.8781       4.12786             0       5.33019       2.33648             0       60.1473       9.42768             0        17.519             0             0      0.212432   1.21315e-08       0.07638        104536        103180        259137   2.22273e-08
    0.0432733       288.742       288.442      0.172855       14.7654       4.09797             0       5.35204        2.3089             0       60.1114       9.35883             0       16.9059             0             0      0.212606   1.08826e-08     0.0756245        104539        103182        259228    1.9939e-08
    0.0434434       288.721       288.439      0.172647       14.6526       4.06807             0       5.37389       2.28132             0       60.0755       9.28998             0       16.2929             0             0       0.21278   9.63369e-09      0.074869        104541        103183        259319   1.76507e-08
    0.0436136       288.699       288.436      0.172438       14.5398       4.03818             0       5.39574       2.25374             0       60.0396       9.22113             0       15.6798             0             0      0.212954   8.38476e-09     0.0741134        104544        103184        259409   1.53624e-08
    0.0437838       288.678       288.433       0.17223        14.427       4.00828             0       5.41759       2.22615             0       60.0037       9.15228             0       15.0667             0             0      0.213128   7.13583e-09     0.0733579        104547        103186        259500   1.30742e-08
     0.043954       288.656        288.43      0.172022       14.3143       3.97839             0       5.43943       2.19857             0       59.9678       9.08343             0       14.4536             0             0      0.213302    5.8869e-09     0.0726024        104549        103187        259590   1.07859e-08
    0.0441241        288.63       288.427       0.17258        14.186       3.92152             0        5.4525       2.16451             0       59.7505       8.94219             0       13.8472             0             0      0.213291   5.18634e-09      0.072649        104552        103188        259733   9.50234e-09
    0.0442943       288.603       288.423      0.173424       14.0521       3.85464             0        5.4623       2.12805             0       59.4659       8.77411             0       13.2431             0             0      0.213212    4.6892e-09     0.0729932        104554        103189        259894    8.5915e-09
    0.0444645       288.576       288.419      0.174267       13.9181       3.78776             0        5.4721       2.09158             0       59.1813       8.60602             0       12.6391             0             0      0.213132   4.19207e-09     0.0733373        104557        103191        260056   7.68065e-09
    0.0446346       288.549       288.415       0.17511       13.7841       3.72088             0        5.4819       2.05512             0       58.8967       8.43794             0       12.0351             0             0      0.213053   3.69493e-09     0.0736815        104559        103192        260217    6.7698e-09
    0.0448048       288.522       288.411      0.175953       13.6502         3.654             0       5.49171       2.01865             0       58.6121       8.26985             0       11.4311             0             0      0.212974    3.1978e-09     0.0740257        104561        103193        260379   5.85896e-09
     0.044975       288.494       288.407      0.176797       13.5162       3.58712             0       5.50151       1.98219             0       58.3276       8.10177             0       10.8271             0             0      0.212895   2.70066e-09     0.0743699        104564        103194        260540   4.94811e-09
    0.0451451       288.463       288.402      0.178113       13.3689       3.48077             0       5.50201       1.93444             0        57.787        7.8644             0       10.2548             0             0        0.2124   2.38667e-09     0.0765221        104566        103195        260748   4.37283e-09
    0.0453153       288.432       288.397       0.17951       13.2192       3.36762             0       5.50091       1.88475             0       57.2023       7.61507             0       9.68793             0             0      0.211833   2.10427e-09      0.078986        104568        103197        260964   3.85541e-09
    0.0454855         288.4       288.392      0.180908       13.0696       3.25446             0       5.49981       1.83506             0       56.6176       7.36575             0       9.12111             0             0      0.211267   1.82186e-09       0.08145        104570        103198        261180   3.33799e-09