#           y             T         TMean   TPrime2Mean           U_x           U_y           U_z       UMean_x       UMean_y       UMean_z UPrime2Mea... UPrime2Mea... UPrime2Mea... UPrime2Mea... UPrime2Mea... UPrime2Mea...            O2           H2O          C3H8             p         pMean   pPrime2Mean           CO2
            0       288.746       288.021     0.0671912       24.4602             0             0       22.7844             0             0       5.97381             0             0             0             0             0          0.23   1.29594e-16   4.05144e-09        104366        103134        293718   2.37441e-16
  0.000500501       288.744       288.021     0.0671933       24.4811     -0.156748             0       22.7866   -0.00361907             0        5.9932       0.12211             0     0.0533188             0             0          0.23   4.38531e-15   2.78452e-08        104360        103133        293230    8.0347e-15
     0.001001       288.742       288.021     0.0671951       24.5019     -0.313506             0       22.7889   -0.00723086             0       6.01275      0.244223             0      0.106746             0             0          0.23   9.48139e-15   5.28645e-08        104355        103133        292740   1.73717e-14
    0.0015015       288.739       288.021     0.0670803       24.5031       -0.4748             0       22.7842   -0.00721311             0       6.10968      0.368163             0      0.214466             0             0          0.23   4.33922e-13   6.89441e-07        104345        103133        291434   7.95026e-13
     0.002002       288.735       288.021      0.066966       24.5045     -0.636189             0       22.7795   -0.00721812             0       6.20692      0.492258             0      0.322745             0             0          0.23   9.35273e-13    1.3695e-06        104334        103134        290126    1.7136e-12
    0.0025025       288.728       288.021     0.0669484       24.5446     -0.821334             0       22.7801    -0.0128869             0       6.38561      0.654938             0      0.570248             0             0      0.229997   2.05874e-11   1.28775e-05        104315        103133        288207   3.77199e-11
     0.003003        288.72       288.021     0.0669707       24.5847      -1.00656             0       22.7807    -0.0184745             0       6.56588        0.8176             0      0.818511             0             0      0.229994   4.59983e-11   2.53538e-05        104296        103133        286285   8.42774e-11
    0.0035035       288.715       288.028     0.0735934       24.6276      -1.20602             0       22.7695    -0.0105982             0       7.00795      0.977131             0       1.19275             0             0      0.229954   1.02545e-09   0.000198248        104276        103133        283857   1.87882e-09
     0.004004        288.71       288.034     0.0825484       24.6708       -1.4056             0       22.7584   -0.00282475             0       7.45257       1.13816             0       1.57122             0             0      0.229911   2.30146e-09   0.000384959        104256        103133        281427   4.21671e-09
    0.0045045       288.731       288.088      0.380709       24.7482      -1.62085             0       22.7617   -0.00781222             0       8.21334       1.48536             0       2.47496             0             0      0.229474   4.03509e-08    0.00228498        104236        103132        278729   7.39304e-08
   0.00500501       288.755       288.144      0.740509       24.8248      -1.83697             0       22.7645    -0.0125563             0        8.9825       1.83159             0        3.3863             0             0      0.229013      8.88e-08    0.00428681        104216        103131        276033   1.62698e-07
   0.00550551       289.138       288.438       7.20267       24.8291      -2.13865             0       22.7215    0.00679855             0       10.5813       2.08294             0       5.04967             0             0      0.226231   1.16682e-06     0.0163676        104206        103130        273485   2.13783e-06
   0.00600601        289.56        288.74        14.284       24.8279      -2.43995             0       22.6786     0.0255794             0       12.1752       2.34139             0       6.74226             0             0      0.223374   2.50699e-06     0.0287746        104196        103128        270945   4.59327e-06
   0.00650651       293.127       289.666        72.341       24.3719      -2.71019             0       22.6454    -0.0028972             0       13.3678       3.18419             0       10.8405             0             0      0.214289   2.54308e-05     0.0680294        104195        103124        269102    4.6594e-05
   0.00700701       296.889       290.612       134.513       23.9038      -2.98432             0       22.6122    -0.0304463             0        14.532       4.02114             0       14.9583             0             0       0.20513   5.15927e-05      0.107569        104193        103120        267271   9.45274e-05
   0.00750751       314.457       293.015       486.517       22.5949       -3.5323             0       22.5792    0.00732349             0       13.6938       4.44665             0        20.453             0             0      0.190819   0.000305804      0.167167        104203        103114        266300   0.000560289
   0.00800801       334.537       295.519       900.178       21.2818      -4.05871             0       22.5357     0.0438445             0       12.8467       4.83253             0       25.9576             0             0      0.176305   0.000675559      0.226464        104213        103108        265325    0.00123775
   0.00850851       509.096       304.248       5105.83       19.7141      -3.25799             0       21.8514    0.00356469             0       11.4572       2.78139             0       32.0786             0             0      0.149279    0.00815131      0.267221        104225        103101        264093     0.0149347
   0.00900901       682.175       312.969       9327.73        18.188      -2.43434             0       21.1673    -0.0353614             0       10.0758      0.719966             0       38.1687             0             0      0.122529     0.0155322      0.307752        104236        103093        262816      0.028458
   0.00950951       774.495       321.243       14435.8       18.9284     -0.359346             0       20.4914  -0.000435152             0       9.13793       -1.9019             0       42.5756             0             0      0.110823     0.0177405      0.335978        104236        103089        259140     0.0325039
      0.01001        863.45       329.393       19479.2       19.6783        1.7019             0         19.81     0.0380731             0       8.22781      -4.48557             0       46.8813             0             0      0.099466     0.0197871      0.364348        104235        103086        255433     0.0362536
    0.0105105       787.555       331.503       21353.1        20.891       3.08921             0       18.8589      0.252097             0       8.67788      -5.19715             0       46.2308             0             0      0.105181     0.0139127      0.399799        104248        103090        250225     0.0254907
     0.011011       712.968       333.591       23211.1       22.0787       4.45692             0       17.8927      0.464646             0       9.16473      -5.86741             0       45.4964             0             0      0.110659    0.00813993      0.435237        104260        103095        245006     0.0149139
    0.0115115       696.537       334.753       24358.8       22.1605       4.95353             0       16.2522      0.611685             0       11.2873      -4.70082             0       41.0305             0             0      0.105616    0.00688395      0.470053        104271        103103        239261     0.0126127
     0.012012       680.584        335.92       25512.7       22.2419       5.46574             0       14.6134       0.75624             0       13.3853      -3.51185             0       36.5324             0             0      0.100583    0.00565615      0.504538        104282        103112        233522     0.0103631
    0.0125125       684.088       337.237         26916       22.3122       6.61242             0       13.0393      0.799816             0       14.4871      -1.41348             0       30.7316             0             0     0.0959367    0.00557462      0.525571        104287        103118        228007     0.0102137
     0.013013       688.876       338.525       28297.1       22.3646       7.76231             0        11.488        0.8407             0       15.5297      0.665495             0       24.9883             0             0     0.0912784    0.00556379      0.545931        104293        103125        222531     0.0101939
    0.0135135       741.827       338.733       28842.1       21.7477       9.03226             0       10.7955      0.780724             0        14.358       2.01811             0          21.4             0             0     0.0861544    0.00820138      0.541129        104284        103128        218511     0.0150265
     0.014014       795.921       338.875       29333.4       21.1222       10.2864             0       10.1272      0.722787             0       13.1699       3.32875             0       17.8581             0             0     0.0809415     0.0109143      0.535939        104276        103131        214519      0.019997
    0.0145145       889.702       336.707       27960.9       20.2017        10.991             0       10.3039      0.735602             0       11.4113       3.18267             0       15.9305             0             0     0.0726457     0.0162412      0.517321        104285        103132        211501      0.029757
     0.015015        982.77       334.524       26550.1       19.2932       11.6974             0       10.4792      0.747109             0       9.69497       3.03481             0       14.0311             0             0     0.0643949     0.0215233      0.498969        104295        103133        208511     0.0394346
    0.0155155       1052.76       331.837       23900.4       18.7739        12.461             0        10.611       0.71633             0       9.34465       2.82917             0        13.039             0             0     0.0575977     0.0253526      0.489215        104310        103133        206430     0.0464507
     0.016016       1120.27       329.058       21195.4        18.259       13.2005             0       10.7572      0.682923             0       9.04528       2.59194             0       12.0779             0             0     0.0509568     0.0290666      0.479965        104325        103133        204375     0.0532554
    0.0165165       1113.13        323.49       16816.5       17.8765       13.2137             0       11.3383      0.570059             0       10.2871       1.39883             0       12.0558             0             0     0.0490459     0.0292896      0.485992        104331        103132        203090      0.053664
     0.017017       1102.95       317.863       12448.4       17.4843       13.1921             0         11.98      0.452268             0       11.5509      0.165012             0       12.0309             0             0     0.0474165     0.0293508      0.492456        104338        103131        201813     0.0537762
    0.0175175        1006.3       310.554       8386.99       16.8157       12.1818             0       14.3417      0.194479             0       13.4405      -2.22573             0       11.9255             0             0     0.0537854     0.0248163       0.51133        104340        103131        200765     0.0454681
     0.018018       908.068       303.352       4411.91       16.1421       11.1611             0       16.7036    -0.0550884             0       15.3039      -4.57122             0       11.8288             0             0     0.0602735     0.0202148      0.530373        104342        103131        199714     0.0370372
    0.0185185       767.659       298.998       2747.16       15.3343       9.86311             0       19.0696    -0.0845186             0       16.4687      -5.70518             0       11.9649             0             0     0.0699531     0.0138193      0.553959        104350        103130        198586     0.0253195
     0.019019       629.065       294.738       1130.09         14.55       8.58247             0        21.375     -0.111202             0         17.58      -6.78608             0       12.0898             0             0     0.0795792     0.0075539      0.576442        104358        103129        197486     0.0138401
    0.0195195       536.444       292.861       720.092       14.3625       7.74071             0       22.1442    -0.0683522             0       17.3353      -6.52399             0       11.9299             0             0     0.0878503    0.00458172      0.571001        104381        103129        197072    0.00839457
      0.02002       445.916       291.026       321.872       14.2206        6.9312             0        22.896    -0.0264196             0       17.0719      -6.25386             0        11.772             0             0     0.0964431    0.00170168      0.563216        104404        103130        196675    0.00311779
    0.0205205       405.629       290.178       206.278       15.1716       6.89584             0       23.2285   -0.00650778             0       16.3578      -5.79065             0        11.665             0             0      0.112757    0.00103258      0.499157        104421        103130        196688    0.00189188
     0.021021       366.067       289.349       94.0174       16.1526       6.89297             0       23.5455     0.0174413             0         15.65      -5.30879             0       11.6043             0             0      0.129269   0.000384684      0.434022        104438        103129        196696   0.000704813
    0.0215215       343.037       288.952       57.8138       17.8174       7.63151             0       23.5079      0.133478             0       15.0842       -4.4016             0       12.5997             0             0       0.15029   0.000220392      0.344312        104459        103128        196581     0.0004038
     0.022022       320.594       288.566        22.801       19.4546       8.37219             0       23.4475      0.249784             0       14.5472      -3.44742             0       13.6234             0             0      0.171023   6.21095e-05      0.255794        104480        103126        196477   0.000113796
    0.0225225       310.883       288.416       13.6596       20.4915       9.15949             0       22.8884      0.371922             0       14.6369      -1.47221             0       15.2593             0             0      0.185491   3.43811e-05      0.193174        104497        103123        196602   6.29925e-05
     0.023023       301.453       288.272       4.84786       21.5039       9.94463             0       22.2796      0.500414             0       14.8476      0.579616             0       16.9023             0             0      0.199645   7.77072e-06       0.13191        104515        103121        196719   1.42374e-05
    0.0235235       297.848       288.243       2.86998       22.0073       10.6852             0       20.6391      0.760678             0       17.5664        4.2203             0       18.6918             0             0      0.207276    4.3485e-06     0.0987637        104527        103116        196638   7.96727e-06
     0.024024       294.338       288.217      0.968189       22.5369       11.4473             0       18.9329       1.01556             0       20.6115       7.82411             0       20.5353             0             0      0.214732   1.06827e-06     0.0663807        104537        103112        196577   1.95728e-06
    0.0245245       292.713       288.244      0.575585       23.5859       12.6369             0       15.9234       1.16362             0        30.129       10.6963             0       23.4479             0             0      0.218698   6.04136e-07     0.0491383        104532        103107        196901   1.10689e-06
     0.025025       291.133       288.271      0.199968       24.6087       13.8177             0       12.9187       1.29666             0       39.8818       13.3679             0       26.4242             0             0      0.222551   1.59859e-07      0.032393        104526        103102        197220   2.92892e-07
    0.0255255       290.417       288.307      0.147131       25.1331       14.8328             0       10.0043       1.14403             0       54.1049       12.2276             0       30.6101             0             0       0.22423   9.29289e-08     0.0250908        104504        103095        197464   1.70263e-07
     0.026026       289.723       288.343     0.0970109       25.5825       15.7939             0       7.14467      0.983952             0       68.0281       10.9768             0       34.7736             0             0      0.225845   2.89012e-08     0.0180688        104482        103087        197702   5.29524e-08
    0.0265265       289.429       288.366     0.0964348        24.664       15.7701             0       5.28443      0.687851             0       76.4841       7.71236             0       38.5302             0             0      0.226285   1.77925e-08     0.0161555        104454        103080        197851   3.25992e-08
     0.027027       289.144       288.389      0.096004       23.6931       15.7006             0       3.45764      0.387292             0       84.3835       4.43314             0       42.2261             0             0      0.226689   7.17952e-09     0.0143975        104426        103072        198019   1.31542e-08
    0.0275275       289.037       288.405     0.0981193        21.805       14.8306             0       2.21692    0.00862859             0       82.5294      0.895194             0       44.8592             0             0      0.226467   5.25047e-09     0.0153604        104403        103064        198541   9.61984e-09
     0.028028       288.933        288.42      0.100141        19.902       13.9474             0      0.996818     -0.371134             0       80.3494      -2.62525             0       47.4007             0             0      0.226237    3.4097e-09     0.0163604        104380        103056        199089    6.2472e-09
    0.0285285       288.891       288.431      0.100585       17.7483       12.8425             0      0.124283     -0.769433             0       72.6747      -5.85057             0       48.3986             0             0      0.225864   3.05715e-09     0.0179846        104366        103050        200076   5.60127e-09
     0.029029        288.85       288.442      0.100959        15.584        11.745             0     -0.738349      -1.16483             0        64.906      -8.98751             0       49.3062             0             0      0.225506     2.705e-09     0.0195401        104353        103043        201101   4.95607e-09
    0.0295295       288.831       288.449      0.100193       13.2486        10.769             0      -1.44014      -1.51317             0       55.6098       -10.689             0       48.7462             0             0      0.225405   2.35927e-09     0.0199795        104347        103038        202734   4.32263e-09
      0.03003       288.813       288.456     0.0993823       10.8883        9.7986             0      -2.13378      -1.85769             0       46.3854      -12.2827             0       48.1231             0             0      0.225319   2.03381e-09     0.0203545        104341        103034        204401   3.72631e-09
    0.0305305       288.814       288.462     0.0978696       8.13896       8.91702             0      -2.69966      -2.14244             0       38.2864      -12.1861             0       46.5107             0             0      0.225464   2.02578e-09     0.0197207        104342        103032        206596   3.71161e-09
     0.031031       288.814       288.468     0.0963865       5.36721       8.03733             0       -3.2574      -2.42149             0       30.4246      -12.0004             0       44.8557             0             0      0.225612   2.08612e-09     0.0190774        104344        103030        208829   3.82216e-09
    0.0315315       288.817       288.472     0.0953515       2.25614       7.18647             0      -3.69198      -2.61443             0       26.1524      -10.4672             0        42.556             0             0      0.225793   3.18072e-09     0.0182903        104354        103030        211633   5.82766e-09
     0.032032       288.819       288.476     0.0943828     -0.854132       6.34003             0      -4.11486      -2.80205             0       22.1285       -8.9051             0       40.2383             0             0      0.225963   4.39559e-09     0.0175549        104365        103031        214477   8.05355e-09
    0.0325325       288.804       288.477     0.0943846      -3.95291       5.55841             0       -4.3667      -2.91193             0       21.7356      -6.92013             0       37.6584             0             0      0.225958   7.36959e-09     0.0175785        104385        103034        217917   1.35025e-08
     0.033033       288.786       288.479     0.0944259      -7.00976       4.79243             0      -4.60591      -3.01708             0       21.4667      -4.95484             0       35.0746             0             0      0.225902   1.03452e-08     0.0178217        104406        103037        221416   1.89544e-08
    0.0335335       288.727       288.479     0.0950271      -9.47334       4.24794             0      -4.66635      -3.05524             0       22.9545      -3.26816             0       32.4375             0             0      0.225131   1.33439e-08     0.0211745        104435        103041        225734   2.44485e-08
     0.034034       288.667       288.479     0.0956179      -11.8531       3.73096             0      -4.71606      -3.09037             0        24.439      -1.61266             0       29.8147             0             0      0.224206   1.61322e-08     0.0251984        104463        103045        230083   2.95572e-08
    0.0345345       288.598        288.48     0.0960658      -13.0846       3.59101             0      -4.61866      -3.08387             0       25.8786     -0.384654             0        27.388             0             0      0.221165   1.60375e-08     0.0384206        104493        103049        234855   2.93836e-08
     0.035035       288.535       288.481     0.0964369      -14.2181        3.4744             0      -4.51425      -3.07466             0       27.2483      0.811116             0       24.9795             0             0      0.217945   1.56968e-08      0.052423        104522        103054        239630   2.87595e-08
    0.0355355       288.541       288.484     0.0957881      -14.0503       3.66781             0      -4.31679      -3.02952             0       27.6874        1.5786             0       22.8121             0             0       0.21234   1.20899e-08     0.0767922        104543        103057        244442    2.2151e-08
     0.036036       288.551       288.488      0.095024      -13.8129       3.86842             0      -4.11372      -2.98156             0       28.0277       2.30427             0       20.6647             0             0      0.206841   8.51643e-09      0.100697        104562        103061        249221   1.56037e-08
    0.0365365       288.618       288.494     0.0927749      -12.6776       4.16202             0       -3.8384       -2.8972             0       27.0948       2.49108             0       18.7734             0             0      0.202721    5.3731e-09      0.118611        104567        103064        253572   9.84452e-09
     0.037037       288.686         288.5     0.0905341      -11.5209       4.44954             0       -3.5594      -2.80967             0       26.0838       2.63932             0       16.9088             0             0       0.19883   2.39922e-09      0.135527        104572        103067        257878   4.39583e-09
    0.0375375       288.766       288.508     0.0883981      -10.0965       4.66115             0      -3.23435      -2.68247             0       24.0972       2.30499             0       15.3777             0             0      0.197814   1.54582e-09      0.139944        104567        103068        261616   2.83224e-09
     0.038038       288.845       288.515     0.0863353      -8.68792       4.86035             0      -2.90652      -2.55301             0       22.1019       1.95955             0       13.8774             0             0       0.19691   7.35633e-10       0.14387        104561        103070        265303   1.34782e-09
    0.0385385       288.915       288.522     0.0851631      -7.47191       4.90871             0      -2.54492      -2.39625             0       20.0025       1.47892             0       12.7512             0             0      0.197381   4.50787e-10      0.141823        104554        103071        268386   8.25926e-10
     0.039039       288.981       288.529     0.0840358      -6.28567       4.94771             0      -2.18191      -2.23832             0       17.9502       1.00673             0       11.6504             0             0      0.198026   1.82734e-10      0.139015        104548        103072        271427   3.34803e-10
    0.0395395       289.002       288.534      0.083438      -5.45132       4.87615             0      -1.80209      -2.06671             0       16.4554      0.634278             0        10.849             0             0      0.200739   1.13177e-10       0.12722        104547        103073        273967   2.07361e-10
      0.04004       289.019       288.538     0.0829128      -4.62649       4.80015             0      -1.42068      -1.89526             0       15.0104      0.273327             0       10.0579             0             0      0.203539   4.75191e-11      0.115047        104547        103074        276464   8.70639e-11
    0.0405405       288.994       288.541     0.0832209      -3.91105       4.67313             0      -1.02096      -1.72564             0       14.1381     0.0446613             0       9.38566             0             0      0.207338   2.67069e-11     0.0985294        104559        103075        278468    4.8932e-11
     0.041041        288.97       288.544     0.0835581      -3.18128       4.54637             0     -0.619159      -1.55654             0       13.2886      -0.17472             0       8.71646             0             0      0.211023   7.32053e-12     0.0825051        104572        103075        280437   1.34126e-11
    0.0415415       288.946       288.548     0.0842214      -2.29095       4.42245             0     -0.194087       -1.3932             0        12.695     -0.290159             0       8.08172             0             0      0.213439   3.89743e-12     0.0720017        104597        103076        282005   7.14083e-12
     0.042042       288.924       288.551     0.0848703      -1.37781       4.29864             0      0.232531      -1.23109             0       12.1242      -0.39425             0       7.44448             0             0      0.215712   7.32584e-13     0.0621209        104623        103077        283534   1.34223e-12
    0.0425425       288.919       288.555     0.0853624     -0.215806       4.17599             0      0.676007      -1.08244             0        11.802     -0.374606             0       6.77999             0             0      0.216423   3.83777e-13     0.0590287        104659        103079        284639   7.03152e-13
     0.043043       288.915        288.56     0.0858266      0.949102       4.04689             0       1.11826     -0.935406             0       11.5285     -0.347719             0       6.11493             0             0      0.217022   6.25419e-14     0.0564273        104695        103080        285707   1.14588e-13
    0.0435435       288.906       288.563     0.0859941       2.14492       3.84924             0       1.54751     -0.805501             0       11.7727     -0.243855             0       5.44391             0             0      0.216421   3.43319e-14     0.0590406        104735        103082        286399   6.29024e-14
     0.044044       288.898       288.567     0.0860966       3.33432       3.64595             0       1.97444     -0.677363             0       12.0701     -0.135875             0       4.77737             0             0      0.215702   8.32139e-15     0.0621665        104774        103084        287061   1.52463e-14
    0.0445445       288.892       288.571     0.0855254       4.45727       3.38417             0       2.37732     -0.567534             0       12.9184     0.0147517             0       4.15734             0             0      0.213761   5.10577e-15     0.0706047        104811        103086        287426   9.35472e-15
     0.045045       288.888       288.574     0.0848152       5.57076       3.12371             0       2.77504     -0.459923             0       13.7989      0.163977             0       3.54484             0             0      0.211819   2.15001e-15     0.0790459        104848        103088        287777   3.93921e-15
    0.0455455       288.908       288.576     0.0827008       6.58866       2.87663             0       3.12069     -0.374735             0       15.0048      0.299029             0        3.0086             0             0      0.209871   1.82174e-15     0.0875193        104879        103090        287996   3.33777e-15