#           y             T         TMean   TPrime2Mean           U_x           U_y           U_z       UMean_x       UMean_y       UMean_z UPrime2Mea... UPrime2Mea... UPrime2Mea... UPrime2Mea... UPrime2Mea... UPrime2Mea...            O2           H2O          C3H8             p         pMean   pPrime2Mean           CO2
  1.11022e-19       288.718       288.096      0.115356       30.6168   -1.1984e-14             0       20.1254  -2.59292e-16             0       22.9259  -4.82517e-16             0   4.34293e-16             0             0      0.228518   1.57384e-06    0.00641979        104429        103139        248347   2.88358e-06
  0.000500501       289.369       288.104      0.123294       30.4827      0.051985             0       20.1275     0.0588661             0       22.9669    -0.0329783             0     0.0536021             0             0      0.226723   5.37778e-06     0.0141783        104430        103139        248290    9.8531e-06
     0.001001       290.029       288.111      0.131768       30.3485      0.103965             0       20.1295      0.117732             0       23.0081    -0.0659502             0      0.107362             0             0       0.22492   9.22111e-06     0.0219696        104432        103139        248232   1.68948e-05
    0.0015015       294.747        288.16      0.407735       30.1862      0.153559             0       20.1363      0.176331             0       23.1379    -0.0957192             0      0.240074             0             0      0.219298   3.27195e-05     0.0461552        104433        103139        248050   5.99482e-05
     0.002002       299.492        288.21      0.691314        30.024      0.203003             0       20.1432      0.234931             0       23.2685     -0.125498             0      0.373215             0             0      0.213678   5.63598e-05     0.0703326        104434        103138        247868   0.000103262
    0.0025025       311.054       288.365       2.87031       29.8988      0.214924             0        20.157       0.29341             0       23.5801     -0.157813             0      0.613073             0             0      0.208447   0.000115325     0.0924664        104422        103138        247567   0.000211297
     0.003003        322.67       288.521       5.10214       29.7786      0.225959             0        20.171      0.351888             0       23.8933     -0.190092             0      0.853686             0             0      0.203243   0.000174619      0.114482        104410        103138        247267   0.000319935
    0.0035035       343.294       288.861       16.0858       30.4923     0.0901004             0       20.2065      0.410341             0       24.4717      -0.21643             0       1.21929             0             0      0.202428   0.000288459      0.116873        104389        103137        246956   0.000528511
     0.004004       363.912       289.202       27.1823       31.2128    -0.0470052             0       20.2419      0.468822             0       25.0502     -0.242461             0       1.58604             0             0      0.201628   0.000402657      0.119191        104368        103137        246644   0.000737742
    0.0045045       383.652       289.704       52.2746       32.7866      -0.33876             0       20.2763      0.530869             0       25.6463     -0.230388             0       2.09452             0             0      0.202819   0.000561138      0.112403        104356        103136        246267    0.00102811
   0.00500501       403.311       290.205       77.4853       34.3598     -0.630964             0       20.3103      0.592965             0       26.2388     -0.216961             0       2.60408             0             0      0.204001   0.000720918      0.105638        104344        103136        245889    0.00132086
   0.00550551       415.036       290.724        114.42        35.868      -0.96768             0       20.2943      0.659898             0        26.472    -0.0694799             0       3.22122             0             0      0.204336    0.00100924      0.101232        104343        103135        245485    0.00184911
   0.00600601       426.725       291.243       151.379       37.3671      -1.30263             0       20.2769      0.726924             0        26.698      0.080556             0        3.8385             0             0      0.204642    0.00130134     0.0969135        104342        103134        245081     0.0023843
   0.00650651        435.43       291.651       190.287       38.1179      -1.49238             0       20.1448      0.801471             0       26.3221      0.440973             0       4.46784             0             0      0.202534    0.00190508     0.0998925        104348        103133        244752    0.00349046
   0.00700701       444.192       292.056        229.14       38.8622       -1.6776             0       20.0106      0.876093             0       25.9424      0.805129             0       5.09643             0             0      0.200387    0.00251781      0.102947        104353        103132        244423    0.00461309
   0.00750751       456.889       292.314         264.1       39.1457      -1.54306             0       19.7251      0.956019             0       25.2893       1.43264             0       5.67216             0             0      0.195522    0.00376412      0.111321        104385        103132        244073    0.00689657
   0.00800801       469.739        292.57       298.954       39.4006      -1.40562             0       19.4374       1.03586             0       24.6356       2.06116             0       6.24738             0             0      0.190555    0.00504833      0.119748        104417        103131        243721    0.00924949
   0.00850851       491.981       292.694       327.399       37.8985      -1.08956             0       19.0138       1.11062             0       23.9398       2.75201             0       6.79063             0             0      0.179336    0.00866357      0.131441        104429        103130        243243     0.0158733
   0.00900901       518.436       292.822       360.815       36.4226     -0.767552             0       18.5888       1.18486             0       23.2507        3.4351             0       7.33559             0             0        0.1675     0.0125669      0.142855        104441        103130        242765     0.0230249
   0.00950951       774.746        293.12       665.407       36.3681     -0.120755             0       18.0875       1.23068             0        22.928       3.69469             0       7.97332             0             0      0.122063     0.0321861      0.139022        104451        103129        242347     0.0589709
      0.01001       1026.95       293.413       964.662       36.3094      0.522674             0       17.5865       1.27598             0       22.6272       3.94508             0       8.61491             0             0     0.0771345     0.0515667      0.135424        104461        103128        241928     0.0944798
    0.0105105       1077.89       293.448       1002.42       36.0415       1.00112             0       17.0975       1.29598             0       23.3951       3.74484             0        9.4451             0             0     0.0571408     0.0592569      0.143413        104466        103127        241451       0.10857
     0.011011        1123.1       293.477       1033.89       35.7359       1.45864             0        16.609       1.31573             0       24.1969       3.54125             0       10.2775             0             0     0.0380214     0.0665329      0.151852        104470        103126        240975      0.121901
    0.0115115       913.548       293.228       785.946       33.7543      0.985942             0       16.1421       1.32447             0       26.5003       3.18883             0       11.2077             0             0     0.0577671     0.0553962      0.180331        104434        103124        240587      0.101496
     0.012012       708.249       292.983       544.222        31.798      0.531957             0        15.675        1.3332             0       28.8344       2.83618             0       12.1384             0             0      0.077182     0.0444193      0.208606        104398        103123        240207     0.0813844
    0.0125125       675.779       292.937       555.427       30.8713      0.838874             0       15.2015       1.34155             0       32.4182        2.4738             0        13.091             0             0     0.0831464     0.0399422      0.228633        104375        103122        240174     0.0731815
     0.013013       644.195       292.892       567.057       29.9461       1.14597             0       14.7297        1.3494             0       36.0059       2.10595             0       14.0482             0             0     0.0889657     0.0355354      0.248568        104353        103120        240149     0.0651074
    0.0135135       645.806       292.887       594.621       29.0782        1.4596             0       14.3189       1.33824             0       39.7407       1.53335             0        15.178             0             0     0.0893453     0.0337639      0.265104        104354        103119        240410     0.0618617
     0.014014       648.325       292.883        622.63       28.2463       1.77271             0       13.9108       1.32653             0       43.4555      0.954961             0       16.3154             0             0     0.0895269     0.0320872      0.281527        104356        103117        240678     0.0587897
    0.0145145       682.379       292.905        666.11       28.6622       2.06755             0       13.6001       1.29593             0       46.4782      0.175512             0       17.7157             0             0     0.0828339     0.0337022      0.294053        104365        103115        241171     0.0617488
     0.015015       715.929       292.924       708.845       29.0839       2.37445             0       13.2906       1.26543             0       49.4708     -0.601761             0       19.1179             0             0     0.0762179     0.0352852      0.306573        104374        103113        241671     0.0646491
    0.0155155       733.191       292.859       727.457        29.696       3.07115             0        13.017        1.2386             0       51.4875       -1.3087             0       20.5833             0             0     0.0720929     0.0358307      0.318912        104357        103110        242399     0.0656486
     0.016016       749.602       292.791       744.793       30.2895       3.77266             0       12.7438       1.21241             0       53.4739      -2.00941             0       22.0473             0             0     0.0681421     0.0363106      0.331167        104341        103108        243136     0.0665278
    0.0165165       740.295       292.626       723.528       30.3195       4.61937             0       12.4847       1.20567             0       54.5403      -2.52189             0       23.4735             0             0     0.0694607     0.0348055      0.340883        104334        103106        244120     0.0637702
     0.017017        730.48       292.459       701.583       30.3258       5.47322             0       12.2261       1.19969             0       55.5802      -3.03094             0       24.8999             0             0     0.0709196      0.033242      0.350588        104328        103104        245108     0.0609055
    0.0175175       706.242       292.258       660.319       29.6608       6.52981             0       11.9831       1.21532             0       55.8663      -3.44241             0       26.3343             0             0     0.0763629     0.0300178      0.360009        104340        103103        246221     0.0549982
     0.018018       681.785       292.057        619.01       28.9859       7.58172             0       11.7401        1.2318             0       56.1249      -3.85352             0       27.7704             0             0     0.0819387     0.0267351      0.369453        104352        103101        247338     0.0489837
    0.0185185       651.441       291.862       576.461       28.0421       8.50808             0       11.4966       1.27081             0       55.6455      -4.25536             0       29.2553             0             0     0.0910635     0.0218876      0.379519        104368        103099        248527     0.0401022
     0.019019       621.414       291.669       534.135       27.0964       9.42322             0       11.2525        1.3107             0       55.1316      -4.65466             0       30.7405             0             0      0.100145     0.0170691      0.389476        104383        103098        249715     0.0312738
    0.0195195       599.412       291.495       497.442       26.1013       10.0542             0       10.9933       1.37285             0       53.7458      -4.98993             0       32.2325             0             0      0.108125     0.0129852      0.396681        104392        103096        250848     0.0237913
      0.02002       577.846       291.322       461.136       25.1117       10.6749             0       10.7339       1.43607             0       52.3339      -5.31913             0       33.7224             0             0      0.115938    0.00898652      0.403738        104401        103094        251977      0.016465
    0.0205205       566.722       291.184       434.091       24.2566       11.0484             0       10.4679       1.52503             0       50.2978      -5.50278             0       35.1595             0             0      0.119742    0.00703335      0.407232        104397        103093        253017     0.0128864
     0.021021       555.764       291.046       407.209       23.4116       11.4151             0       10.2028       1.61517             0       48.2593      -5.67669             0       36.5944             0             0      0.123478    0.00512159      0.410599        104393        103091        254050    0.00938371
    0.0215215       548.596       290.931       384.019       22.7993       11.6269             0       9.95543       1.73214             0       46.1659      -5.62874             0       37.9795             0             0      0.125647    0.00415449      0.411086        104394        103090        254924    0.00761181
     0.022022       541.491       290.816       360.956       22.1968       11.8336             0       9.70998        1.8503             0       44.0829      -5.57056             0       39.3627             0             0      0.127807    0.00320452      0.411438        104396        103089        255791    0.00587128
    0.0225225       535.758       290.715       340.666       21.8106       11.9276             0       9.50556       1.99422             0       42.2282      -5.29016             0       40.7032             0             0       0.12976    0.00262666      0.408866        104396        103088        256489    0.00481254
     0.023023       529.967       290.614       320.421       21.4335        12.021             0       9.30322       2.13911             0       40.3747      -5.00099             0       42.0434             0             0      0.131748    0.00205492      0.406081        104396        103087        257177      0.003765
    0.0235235       522.985       290.521       301.128       21.2482       12.1026             0       9.14405        2.3044             0       38.5488      -4.52986             0       43.3768             0             0      0.134451    0.00161009      0.398885        104395        103086        257669    0.00294999
     0.024024       515.943       290.426       281.576        21.069       12.1878             0       8.98626       2.47067             0       36.7164      -4.04738             0       44.7102             0             0      0.137188    0.00117426      0.391447        104395        103085        258152    0.00215145
    0.0245245       507.702       290.317       256.881       21.0124       12.3431             0       8.85579       2.65623             0       34.7555      -3.33975             0       46.0417             0             0      0.140607   0.000916752      0.379218        104396        103085        258459    0.00167966
     0.025025       499.457       290.208       232.096       20.9561       12.5072             0       8.72615       2.84285             0       32.7985      -2.61561             0        47.373             0             0      0.144026    0.00066584      0.366927        104397        103084        258750    0.00121994
    0.0255255       491.161       290.092       205.579       20.9059       12.8367             0       8.61213       3.04953             0       30.9171      -1.57788             0       48.7031             0             0      0.147422   0.000540136      0.353456        104400        103084        258760   0.000989629
     0.026026       482.894       289.975       179.287       20.8471       13.1752             0       8.49888       3.25724             0       29.0636     -0.521022             0       50.0346             0             0      0.150765   0.000416853      0.340187        104403        103083        258752   0.000763752
    0.0265265       475.161       289.868       157.093       20.6335        13.678             0        8.3997       3.48359             0       27.7187      0.884426             0       51.3918             0             0      0.153158   0.000337715      0.330602        104405        103083        258422   0.000618756
     0.027027       467.428       289.761       135.133       20.4044       14.1831             0       8.30075       3.71066             0       26.4197       2.30848             0       52.7488             0             0      0.155484   0.000259997      0.321292        104407        103083        258073   0.000476363
    0.0275275       459.688       289.663       117.279       19.9044       14.7315             0       8.20586       3.95016             0       25.9264       4.05846             0       54.1046             0             0      0.156645   0.000207162      0.316792        104407        103083        257417    0.00037956
     0.028028       451.925       289.565       99.6334       19.3937       15.2725             0       8.11035       4.18993             0       25.4785       5.82071             0       55.4514             0             0      0.157761   0.000155746      0.312471        104407        103084        256743   0.000285356
    0.0285285       443.788       289.477       85.5082       18.7033       15.6888             0       8.00434       4.43407             0       25.7984       7.78983             0       56.6468             0             0      0.158131   0.000128241      0.311148        104406        103084        255759   0.000234962
     0.029029       435.534       289.389       71.5847       18.0049        16.093             0       7.89734       4.67817             0       26.1514       9.75924             0       57.8246             0             0      0.158425   0.000101353      0.310152        104404        103084        254765   0.000185698
    0.0295295       425.402       289.313       60.9383       17.1784        16.299             0       7.77426       4.92158             0       27.0438       11.7333             0       58.7173             0             0      0.157476   8.44914e-05      0.314456        104404        103085        253619   0.000154804
      0.03003       415.107       289.238        50.498       16.3483       16.4931             0       7.65054       5.16486             0        27.958       13.6957             0       59.5916             0             0      0.156422   6.78261e-05      0.319211        104403        103086        252468    0.00012427
    0.0305305       402.247       289.175       43.2866       15.4609        16.499             0        7.5168       5.40606             0       29.2138       15.4767             0       60.1782             0             0      0.153736   5.42386e-05       0.33103        104401        103087        251226   9.93752e-05
     0.031031       389.407       289.112        36.244       14.5721       16.4979             0       7.38284       5.64696             0       30.4861       17.2388             0       60.7511             0             0      0.151009   4.08743e-05      0.343025        104398        103088        249985   7.48893e-05
    0.0315315       376.862       289.058       31.7541       13.6595        16.391             0       7.24561       5.88338             0       32.0083       18.7171             0       61.1155             0             0      0.147665   3.08862e-05      0.357667        104394        103089        248762   5.65893e-05
     0.032032       364.574       289.006       27.3875       12.7448       16.2779             0       7.10823       6.11908             0       33.5459       20.1735             0       61.4697             0             0      0.144405     2.117e-05      0.371936        104390        103090        247552   3.87874e-05
    0.0325325       356.054       288.962       24.8237       11.7978       16.0742             0       6.96847       6.34432             0       35.3091        21.311             0       61.6735             0             0       0.14239   1.54305e-05      0.380753        104394        103092        246512   2.82716e-05
     0.033033       347.809       288.919       22.3451       10.8554       15.8697             0       6.82832       6.56816             0        37.083       22.4234             0       61.8655             0             0      0.140542   9.91669e-06      0.388839        104398        103093        245485   1.81692e-05
    0.0335335        343.46       288.886        21.073       9.97818       15.6551             0       6.68256        6.7722             0         39.01       23.1801             0       61.8916             0             0      0.141065   7.59542e-06      0.386587        104404        103095        244645   1.39162e-05
     0.034034        339.25       288.854       19.8481       9.11369       15.4432             0       6.53598         6.974             0       40.9376       23.9062             0       61.8995             0             0      0.141709   5.36815e-06      0.383804        104411        103097        243822   9.83545e-06
    0.0345345       336.954        288.83       19.2695        8.4233       15.2697             0       6.37818       7.14496             0        42.874       24.2115             0       61.6576             0             0      0.144022   4.42911e-06      0.373754        104415        103099        243228   8.11495e-06
     0.035035       334.735       288.805       18.6968       7.76163       15.0973             0       6.21883        7.3127             0        44.801       24.4809             0       61.3899             0             0      0.146352   3.53028e-06      0.363628        104420        103101        242656   6.46814e-06
    0.0355355       333.531       288.782        18.203       7.48154       14.9397             0       6.03893       7.43756             0       46.6034       24.2741             0       60.7787             0             0      0.148917   3.16571e-06      0.352477        104424        103104        242358   5.80017e-06
     0.036036       332.363       288.758       17.6857       7.24692       14.7861             0       5.85651       7.55829             0       48.3914       24.0287             0       60.1348             0             0      0.151452   2.82792e-06      0.341456        104428        103106        242079   5.18127e-06
    0.0365365       331.648       288.732       16.8668        7.5983       14.6834             0       5.64167       7.62569             0       49.9951       23.2865             0       59.0702             0             0      0.153601   2.83538e-06      0.332109        104437        103109        242036   5.19494e-06
     0.037037         330.9       288.706       16.0156       7.99559       14.5831             0       5.42348       7.68833             0       51.5831       22.5061             0       57.9678             0             0      0.155842    2.8591e-06      0.322359        104446        103113        242006    5.2384e-06
    0.0375375       329.738       288.675       14.7604       8.96722       14.5125             0       5.16345       7.69137             0       52.9753        21.248             0       56.3933             0             0      0.159244   3.08637e-06      0.307564        104459        103116        242159   5.65481e-06
     0.038038       328.555       288.643        13.484       9.95766       14.4429             0       4.89945       7.68947             0       54.3554        19.959             0       54.7799             0             0      0.162678   3.30928e-06      0.292626        104473        103120        242326   6.06321e-06
    0.0385385        327.11       288.607       11.9495       11.1769       14.3859             0       4.58708       7.62747             0       55.5893       18.2932             0       52.6928             0             0       0.16651   3.47901e-06      0.275955        104491        103124        242675    6.3742e-06
     0.039039       325.673       288.571       10.4047       12.3745       14.3291             0        4.2706       7.56054             0       56.8158       16.6086             0       50.5717             0             0      0.170325   3.62406e-06      0.259361        104510        103128        243036   6.63994e-06
    0.0395395       324.326       288.531       8.73806       13.3176       14.2748             0       3.90562       7.43526             0       57.9533       14.7007             0       48.0475             0             0      0.173932   3.47722e-06      0.243679        104533        103132        243547   6.37091e-06
      0.04004       322.902       288.492       7.07909       14.1998       14.2128             0       3.53778       7.30492             0        59.071       12.7815             0       45.5008             0             0      0.177728    3.3034e-06      0.227176        104556        103136        244066   6.05245e-06
    0.0405405       320.587       288.454        5.5087       14.3816       14.0616             0       3.13693       7.11646             0       59.9589       10.7322             0        42.695             0             0      0.183698   2.81942e-06       0.20123        104580        103141        244686    5.1657e-06
     0.041041       318.165       288.417       3.97807       14.4834       13.9011             0       2.73562       6.92294             0       60.7966       8.67574             0        39.875             0             0      0.189664   2.32856e-06      0.175299        104604        103146        245306   4.26635e-06
    0.0415415        314.53       288.387       2.89263       13.6905       13.6379             0       2.32916       6.67288             0       61.0725       6.53789             0       36.8972             0             0      0.195593   1.76069e-06      0.149535        104627        103151        245930   3.22592e-06
     0.042042       310.882       288.359       1.85325       12.8467       13.3609             0       1.92406       6.41817             0       61.2911       4.40397             0       33.9107             0             0      0.201231   1.21162e-06      0.125039        104649        103156        246551   2.21992e-06
    0.0425425       307.081       288.342       1.31634        11.448       12.9337             0       1.53385       6.11265             0        60.885       2.31296             0       30.8294             0             0      0.203687   8.67494e-07      0.114367        104667        103161        247145   1.58941e-06
     0.043043       303.345       288.326      0.806368       10.0465       12.4846             0       1.14493       5.80355             0       60.4615      0.241519             0       27.7498             0             0      0.206004    5.3993e-07      0.104302        104685        103166        247744   9.89253e-07
    0.0435435       300.289       288.322      0.582847       8.61579       11.8031             0      0.769756       5.45633             0       59.8521        -1.622             0       24.6872             0             0      0.206838   3.88439e-07      0.100677        104698        103171        248380   7.11692e-07
     0.044044       297.298       288.318      0.372051        7.1889       11.1071             0       0.39712       5.10598             0        59.227      -3.44133             0       21.6396             0             0      0.207727   2.44441e-07     0.0968163        104711        103176        249019   4.47861e-07
    0.0445445       294.971       288.325      0.293125       5.80164       10.2613             0     0.0508325       4.72331             0       58.4385      -4.80281             0        18.746             0             0      0.209177   1.78105e-07     0.0905147        104718        103180        249691   3.26322e-07
     0.045045       292.723       288.331      0.219353       4.40742       9.41248             0     -0.289982       4.33703             0       57.5911      -6.09317             0       15.8765             0             0      0.210625   1.14324e-07     0.0842212        104725        103185        250366   2.09464e-07
    0.0455455       291.274       288.339      0.197698       2.94276       8.53382             0     -0.575461       3.91421             0       56.1491      -6.66458             0       13.2513             0             0      0.212055   7.63756e-08     0.0780098        104730        103189        251085   1.39934e-07