#           y             T         TMean   TPrime2Mean           U_x           U_y           U_z       UMean_x       UMean_y       UMean_z UPrime2Mea... UPrime2Mea... UPrime2Mea... UPrime2Mea... UPrime2Mea... UPrime2Mea...            O2           H2O          C3H8             p         pMean   pPrime2Mean           CO2
            0       288.392       288.305      0.228119       37.0308             0             0       14.6209             0             0        37.796             0             0             0             0             0      0.171201   7.54032e-16      0.255645        103678        103159        259800   1.38153e-15
  0.000500501       288.433       288.312       0.22968       36.6516     0.0261763             0       14.6238     0.0241633             0       37.4372      0.155312             0     0.0749185             0             0      0.168053   8.11541e-16      0.269335        103678        103159        259815   1.48689e-15
     0.001001       288.475       288.319      0.231245       36.2723      0.052408             0       14.6267     0.0483271             0       37.0779      0.310599             0      0.150031             0             0      0.164907   8.69158e-16      0.283013        103678        103159        259829   1.59246e-15
    0.0015015       288.482       288.331      0.234468       35.8321      0.106278             0       14.6363     0.0727074             0       36.4914      0.453951             0      0.322201             0             0      0.163195    9.8045e-16      0.290457        103678        103159        259829   1.79637e-15
     0.002002       288.488       288.344      0.237706       35.3943      0.160324             0       14.6459     0.0970819             0       35.9064      0.597181             0      0.494831             0             0      0.161511   1.09167e-15       0.29778        103678        103158        259829   2.00014e-15
    0.0025025       288.398       288.354      0.244476        35.591      0.258046             0       14.6705      0.120008             0       35.6986      0.710221             0      0.782195             0             0      0.166815   1.18481e-15      0.274722        103679        103158        259794    2.1708e-15
     0.003003       288.308       288.363       0.25126       35.7889       0.35588             0       14.6952      0.142909             0       35.4929      0.822821             0       1.07035             0             0      0.172121   1.27771e-15      0.251654        103679        103158        259759     2.341e-15
    0.0035035        288.24       288.369      0.260277       36.2126      0.472297             0       14.7398      0.161633             0       35.6272       0.86247             0       1.48946             0             0       0.17784   1.33012e-15       0.22679        103678        103157        259646   2.43703e-15
     0.004004       288.172       288.375      0.269224       36.6351       0.58891             0       14.7845       0.18032             0        35.762      0.901329             0       1.90964             0             0      0.183533   1.38226e-15      0.202038        103678        103157        259531   2.53256e-15
    0.0045045       288.156       288.381      0.269484       36.9218      0.729861             0       14.8306       0.19442             0       35.9428      0.842086             0       2.46305             0             0      0.185998    1.4007e-15      0.191317        103676        103156        259331   2.56635e-15
   0.00500501       288.139       288.388       0.26965       37.2087      0.871414             0       14.8765      0.208511             0       36.1214      0.782443             0       3.01743             0             0      0.188447   1.41903e-15      0.180667        103675        103155        259130   2.59992e-15
   0.00550551       288.135       288.397      0.260424       37.5081       1.07262             0       14.8889      0.221698             0         36.08      0.683229             0       3.66789             0             0      0.189301   1.42565e-15      0.176953        103673        103155        258907   2.61206e-15
   0.00600601       288.131       288.407      0.251191       37.8078       1.27456             0       14.9005       0.23493             0       36.0327      0.584899             0       4.31867             0             0       0.19015   1.43222e-15      0.173261        103671        103154        258684   2.62409e-15
   0.00650651        288.13       288.417      0.241464       38.1189       1.53745             0       14.8489      0.251869             0       35.5024      0.559368             0       4.99662             0             0      0.190595   1.43347e-15      0.171325        103667        103153        258407   2.62639e-15
   0.00700701       288.129       288.427      0.231774        38.428       1.80086             0       14.7962      0.268889             0       34.9638      0.535718             0       5.67423             0             0       0.19104    1.4347e-15      0.169391        103664        103152        258130   2.62864e-15
   0.00750751       288.127       288.437      0.224611       38.5931       2.10118             0       14.6749      0.291573             0       33.8376      0.644494             0       6.32878             0             0      0.191467   1.43382e-15      0.167535        103659        103151        257806   2.62703e-15
   0.00800801       288.125       288.446      0.217471       38.7564       2.40207             0       14.5527      0.314313             0       32.7055       0.75459             0       6.98306             0             0      0.191895   1.43293e-15      0.165677        103654        103150        257482    2.6254e-15
   0.00850851       288.129       288.455      0.211792       38.8037        2.7384             0       14.3837      0.340522             0        31.207      0.945913             0        7.6203             0             0       0.19235   1.43156e-15      0.163696        103648        103150        257151   2.62288e-15
   0.00900901       288.133       288.464      0.206131       38.8512       3.07578             0       14.2143      0.366731             0       29.7078       1.13723             0       8.25775             0             0      0.192806    1.4302e-15      0.161716        103642        103149        256820   2.62039e-15
   0.00950951       288.142       288.474      0.201436       38.9041       3.47027             0       14.0264      0.392981             0       28.1728       1.32799             0       8.90641             0             0      0.193242   1.42944e-15      0.159817        103634        103148        256488     2.619e-15
      0.01001       288.151       288.485      0.196773       38.9567       3.86594             0       13.8384      0.419222             0         26.64       1.51848             0       9.55525             0             0      0.193681   1.42869e-15      0.157912        103627        103147        256156   2.61763e-15
    0.0105105       288.163       288.496       0.19366       38.9968       4.31969             0       13.6462       0.44509             0       25.2172       1.69561             0       10.2128             0             0      0.194201   1.42838e-15      0.155649        103616        103146        255825   2.61706e-15
     0.011011       288.175       288.506      0.190618       39.0339       4.77431             0       13.4537      0.471001             0       23.7956       1.87332             0       10.8698             0             0      0.194726   1.42808e-15      0.153367        103606        103145        255494   2.61651e-15
    0.0115115        288.19       288.517      0.190772       38.9413       5.26755             0       13.2526      0.498848             0       22.4262       2.07727             0       11.5027             0             0      0.195441   1.42817e-15      0.150259        103593        103144        255160   2.61667e-15
     0.012012       288.205       288.527      0.190977       38.8433       5.76115             0       13.0511      0.526742             0        21.057       2.28183             0       12.1346             0             0      0.196161   1.42825e-15      0.147129        103580        103143        254828   2.61681e-15
    0.0125125       288.214       288.536      0.193264       38.5283       6.26901             0       12.8362      0.556479             0       19.6962       2.51129             0       12.7261             0             0      0.197085   1.42769e-15      0.143111        103566        103142        254554   2.61579e-15
     0.013013       288.223       288.545       0.19551       38.2066       6.77673             0       12.6212      0.586189             0       18.3386       2.73997             0       13.3167             0             0      0.198013   1.42707e-15      0.139076        103551        103141        254280   2.61465e-15
    0.0135135       288.227       288.552      0.196183       37.6346       7.27881             0       12.4035      0.614848             0       17.0961        2.9392             0       13.8765             0             0      0.199086   1.42397e-15      0.134413        103536        103141        254033   2.60898e-15
     0.014014       288.231        288.56       0.19679       37.0553       7.78019             0       12.1859       0.64347             0       15.8609       3.13709             0       14.4342             0             0      0.200163   1.42081e-15      0.129729        103520        103140        253786   2.60319e-15
    0.0145145       288.232       288.567      0.195095       36.2253        8.2573             0       11.9722      0.670817             0        14.881       3.28794             0       14.9203             0             0      0.201408   1.41521e-15      0.124314        103505        103139        253563   2.59293e-15
     0.015015       288.232       288.573      0.193372       35.3881       8.73323             0       11.7583      0.698254             0       13.9109       3.43803             0       15.4009             0             0      0.202656   1.40958e-15      0.118889        103489        103139        253341   2.58261e-15
    0.0155155       288.231       288.579      0.190738       34.3196       9.17115             0       11.5357       0.72857             0        13.256       3.56372             0        15.706             0             0       0.20398   1.40272e-15      0.113136        103475        103138        253171   2.57005e-15
     0.016016       288.229       288.584      0.188135       33.2448        9.6073             0       11.3127      0.759021             0       12.6131       3.68699             0       16.0039             0             0      0.205294   1.39587e-15       0.10742        103460        103138        253002   2.55749e-15
    0.0165165       288.229       288.589      0.186449         31.98        9.9902             0       11.0725      0.793556             0       12.3366       3.73692             0       16.0853             0             0      0.206347   1.38904e-15      0.102844        103447        103137        252877   2.54498e-15
     0.017017       288.229       288.593      0.184827       30.7103       10.3712             0       10.8321      0.828065             0       12.0749       3.78022             0       16.1616             0             0      0.207392   1.38221e-15     0.0982989        103434        103137        252752   2.53247e-15
    0.0175175       288.229       288.595      0.185052       29.3007       10.6971             0        10.585      0.861887             0       12.2346       3.63531             0       16.0921             0             0      0.208232   1.37526e-15     0.0946466        103424        103137        252637   2.51974e-15
     0.018018       288.228       288.596      0.185351       27.8875       11.0209             0        10.338      0.895539             0       12.4089       3.48202             0       16.0197             0             0      0.209063   1.36835e-15      0.091036        103414        103137        252522   2.50708e-15
    0.0185185       288.225       288.596      0.187636       26.3778       11.2887             0       10.0945      0.924683             0       12.9741       3.10426             0       15.8706             0             0      0.209636   1.36247e-15      0.088543        103408        103137        252420    2.4963e-15
     0.019019       288.222       288.596      0.189984       24.8655       11.5541             0       9.85128      0.953681             0       13.5497       2.72096             0       15.7189             0             0      0.210192   1.35674e-15     0.0861298        103402        103137        252318    2.4858e-15
    0.0195195       288.218       288.595      0.193923       23.2896       11.7579             0       9.61421      0.978955             0       14.3898       2.19734             0       15.5021             0             0      0.210282    1.3547e-15     0.0857366        103400        103137        252236   2.48206e-15
      0.02002       288.214       288.594       0.19792        21.713       11.9581             0       9.37738       1.00421             0        15.235       1.67428             0       15.2825             0             0       0.21036   1.35276e-15     0.0853979        103398        103137        252152    2.4785e-15
    0.0205205       288.212       288.594      0.203296       20.1176       12.0722             0       9.14635       1.02899             0       16.2004       1.16447             0       14.9963             0             0      0.210137   1.35328e-15     0.0863677        103400        103138        252021   2.47946e-15
     0.021021       288.211       288.593      0.208774       18.5236       12.1828             0       8.91588       1.05398             0       17.1609      0.659926             0       14.7067             0             0      0.209906   1.35384e-15     0.0873706        103403        103138        251890   2.48048e-15
    0.0215215       288.211       288.594      0.216538       16.9587       12.2133             0       8.69845       1.08355             0        18.009      0.275531             0       14.3389             0             0      0.209502   1.35512e-15     0.0891287        103408        103138        251747   2.48283e-15
     0.022022       288.212       288.595       0.22445       15.3987       12.2399             0       8.48228        1.1131             0       18.8394    -0.0994136             0       13.9694             0             0       0.20909   1.35641e-15      0.090919        103414        103138        251605   2.48519e-15
    0.0225225       288.217       288.598      0.235573       13.9433       12.1832             0       8.29353       1.14219             0       19.2857     -0.269021             0       13.5639             0             0      0.208517    1.3579e-15     0.0934102        103421        103138        251486   2.48792e-15
     0.023023       288.223       288.601        0.2467       12.4938       12.1233             0       8.10586       1.17146             0       19.7191     -0.432421             0       13.1592             0             0      0.207937   1.35937e-15     0.0959316        103429        103139        251369   2.49062e-15
    0.0235235       288.233       288.603      0.257912       11.1666       11.9952             0       7.94075        1.2043             0       19.8875     -0.467084             0       12.7711             0             0      0.207213   1.36045e-15     0.0990795        103438        103139        251287   2.49261e-15
     0.024024       288.244       288.605      0.269001       9.84291       11.8673             0       7.77643       1.23736             0       20.0523     -0.497111             0       12.3843             0             0      0.206486   1.36153e-15      0.102241        103447        103139        251206   2.49457e-15
    0.0245245       288.257       288.607      0.277633        8.5871       11.7445             0       7.62802       1.27469             0        20.147     -0.435207             0       12.0247             0             0      0.205698   1.36237e-15      0.105664        103455        103139        251155   2.49611e-15
     0.025025       288.271       288.609      0.286201       7.34156       11.6178             0       7.48026       1.31206             0       20.2462     -0.367951             0       11.6667             0             0      0.204912   1.36325e-15      0.109083        103464        103139        251108   2.49773e-15
    0.0255255       288.285       288.614      0.293539       6.29094       11.4185             0       7.34482        1.3502             0       20.4309     -0.198994             0       11.3408             0             0      0.204141   1.36485e-15      0.112434        103471        103139        251127   2.50066e-15
     0.026026       288.299        288.62       0.30074       5.25344       11.2141             0       7.20955       1.38877             0        20.636    -0.0344549             0       11.0187             0             0      0.203378    1.3665e-15      0.115753        103478        103139        251151   2.50369e-15
    0.0265265       288.312       288.625      0.305431       4.45509        10.915             0       7.07753       1.43512             0       21.2125     0.0495487             0       10.7658             0             0      0.202748   1.36912e-15      0.118489        103484        103138        251274   2.50848e-15
     0.027027       288.326       288.631      0.309823       3.65591       10.6199             0        6.9463       1.48158             0       21.8031      0.125497             0       10.5194             0             0      0.202127   1.37178e-15      0.121189        103489        103138        251402   2.51336e-15
    0.0275275       288.348       288.633      0.308953       2.84224       10.3945             0       6.82915       1.52997             0       22.6405     0.0603241             0       10.3883             0             0      0.201656   1.37542e-15      0.123236        103492        103138        251609   2.52002e-15
     0.028028       288.372       288.635      0.307726        2.0255       10.1741             0       6.71439        1.5779             0        23.461   -0.00718773             0       10.2633             0             0      0.201164   1.37911e-15      0.125377        103494        103138        251819   2.52679e-15
    0.0285285       288.429       288.632      0.300464       1.15695       10.0371             0       6.63998       1.61782             0       23.9979     -0.114131             0       10.2418             0             0      0.200303   1.38385e-15      0.129117        103496        103137        252089   2.53547e-15
     0.029029       288.487       288.628       0.29303      0.299833         9.897             0       6.56899       1.65687             0       24.4905     -0.216562             0       10.2253             0             0      0.199436   1.38843e-15      0.132887        103497        103137        252364   2.54386e-15
    0.0295295       288.547       288.622      0.282808     -0.371517       9.70732             0       6.55347        1.6818             0       24.2648     -0.245718             0       10.2893             0             0      0.198457   1.39047e-15      0.137145        103498        103136        252727   2.54759e-15
      0.03003       288.605       288.616      0.272581      -1.02695       9.51305             0       6.54095       1.70578             0       23.9906     -0.269327             0       10.3567             0             0      0.197485   1.39181e-15      0.141371        103499        103136        253095   2.55005e-15
    0.0305305       288.639        288.61      0.262281      -1.43298       9.24695             0        6.5754       1.71496             0       22.9573     -0.206027             0       10.4781             0             0      0.196627   1.38217e-15      0.145101        103499        103135        253535   2.53239e-15
     0.031031       288.673       288.605      0.251897      -1.83352       8.98206             0       6.61152       1.72332             0       21.8936     -0.141801             0       10.6013             0             0      0.195766   1.37195e-15      0.148845        103499        103134        253981   2.51367e-15
    0.0315315       288.695       288.603      0.240257      -2.15098       8.73543             0       6.67295        1.7192             0       20.3688    -0.0635575             0       10.7518             0             0       0.19486   1.35288e-15      0.152784        103499        103134        254520   2.47873e-15
     0.032032       288.716       288.602       0.22854      -2.47058       8.49377             0       6.73488       1.71448             0       18.8385      0.010268             0       10.9024             0             0       0.19396   1.33285e-15      0.156694        103499        103133        255064   2.44202e-15
    0.0325325       288.711       288.602      0.215696      -2.82163       8.32482             0        6.8042       1.70101             0       17.2254     0.0194866             0       11.0541             0             0      0.193159   1.29869e-15      0.160179        103500        103133        255686   2.37944e-15
     0.033033       288.705       288.603      0.202951      -3.16649        8.1572             0       6.87355       1.68723             0        15.625     0.0224666             0       11.2047             0             0      0.192359    1.2622e-15      0.163657        103501        103132        256308   2.31258e-15
    0.0335335       288.673       288.605      0.191603      -3.42376       8.00827             0       6.94336       1.66899             0       14.2042    -0.0628383             0       11.3421             0             0      0.191582   1.19268e-15      0.167034        103504        103132        256912   2.18522e-15
     0.034034       288.641       288.607      0.180439      -3.66276       7.85446             0       7.01318       1.65058             0       12.8036     -0.154043             0       11.4784             0             0      0.190826    1.1227e-15      0.170324        103507        103131        257517   2.05699e-15
    0.0345345       288.604       288.609      0.171787      -3.65133       7.63376             0       7.08322       1.62987             0       11.6808     -0.326107             0       11.6019             0             0      0.190343   1.04624e-15      0.172422        103513        103131        258142   1.91691e-15
     0.035035       288.568        288.61      0.163288      -3.62687       7.40884             0       7.15359       1.60911             0       10.5749     -0.505593             0       11.7235             0             0      0.189889   9.71761e-16      0.174397        103519        103131        258767   1.78045e-15
    0.0355355       288.544       288.611      0.156827      -3.42934       7.12781             0       7.22828       1.58764             0       9.69188     -0.783668             0       11.8199             0             0      0.189814    9.2358e-16      0.174722        103527        103131        259395   1.69217e-15
     0.036036       288.521       288.612      0.150468      -3.23201       6.84712             0       7.30317       1.56609             0       8.82625      -1.07028             0       11.9101             0             0       0.18975   8.77207e-16      0.175003        103535        103131        260018   1.60721e-15
    0.0365365        288.51       288.613      0.145418      -3.03746       6.57078             0        7.3806       1.54345             0       8.18435      -1.46698             0        11.919             0             0      0.189821   8.54127e-16      0.174692        103545        103131        260560   1.56492e-15
     0.037037         288.5       288.614      0.140438      -2.84083       6.29355             0       7.45716       1.52046             0        7.5727      -1.86977             0       11.9172             0             0      0.189889   8.33253e-16      0.174397        103555        103131        261099   1.52667e-15
    0.0375375         288.5       288.615      0.136331       -2.6183       6.00515             0       7.52285       1.49292             0        7.3396      -2.34886             0       11.7828             0             0      0.189915   8.39973e-16      0.174285        103567        103131        261610   1.53899e-15
     0.038038         288.5       288.617      0.132267      -2.38686       5.71363             0       7.58689       1.46503             0       7.14919      -2.83004             0       11.6365             0             0      0.189943   8.48953e-16      0.174164        103579        103132        262116   1.55544e-15
    0.0385385       288.504       288.618      0.128733      -2.04726       5.38412             0       7.63079       1.43276             0       7.47797      -3.33666             0       11.3461             0             0      0.189996   8.85407e-16      0.173935        103593        103132        262573   1.62223e-15
     0.039039       288.507        288.62      0.125208      -1.71035        5.0556             0        7.6727       1.40016             0       7.85769      -3.84041             0       11.0434             0             0      0.190062    9.2267e-16      0.173645        103606        103133        263021    1.6905e-15
    0.0395395       288.501       288.621      0.121801      -1.40538       4.73884             0       7.69119        1.3636             0       8.83966      -4.31017             0       10.5937             0             0      0.190292   9.69487e-16      0.172644        103621        103134        263356   1.77628e-15
      0.04004       288.493       288.622      0.118394      -1.11792       4.42731             0       7.70745       1.32662             0       9.87603      -4.77055             0       10.1327             0             0      0.190548   1.01829e-15      0.171531        103635        103135        263687    1.8657e-15
    0.0405405       288.464       288.623      0.114998      -1.03195       4.17598             0        7.6981        1.2848             0        11.538      -5.12306             0       9.54168             0             0      0.191099   1.08993e-15      0.169137        103650        103136        263967   1.99695e-15
     0.041041       288.435       288.623      0.111589     -0.952627       3.92806             0       7.68605       1.24248             0       13.2455      -5.46093             0       8.94227             0             0      0.191639    1.1618e-15      0.166788        103664        103137        264242   2.12863e-15
    0.0415415       288.406       288.621      0.108032     -0.947763       3.71837             0       7.64382       1.19449             0        15.464      -5.63497             0       8.24832             0             0      0.192062   1.23633e-15      0.164947        103678        103139        264457   2.26519e-15
     0.042042        288.38       288.619      0.104518     -0.930176       3.50908             0       7.59814       1.14584             0       17.7082       -5.7935             0       7.55095             0             0      0.192414   1.30998e-15      0.163415        103692        103140        264659   2.40013e-15
    0.0425425       288.382       288.615      0.101468     -0.773843       3.30408             0       7.51477       1.08992             0       20.2319      -5.78283             0       6.81627             0             0       0.19199   1.37405e-15      0.165261        103705        103141        264724   2.51751e-15
     0.043043       288.387       288.611     0.0985518     -0.617685       3.09951             0       7.42822       1.03335             0       22.7632      -5.75946             0       6.08413             0             0      0.191504   1.43984e-15      0.167374        103718        103143        264786   2.63805e-15
    0.0435435       288.413       288.606     0.0970437     -0.463383       2.89942             0       7.30797      0.969936             0       25.3743      -5.60122             0       5.37896             0             0      0.190367   1.52395e-15      0.172316        103730        103144        264813   2.79217e-15
     0.044044       288.441       288.601     0.0956964     -0.349142       2.69951             0       7.18591      0.905852             0       27.9813      -5.43547             0       4.67938             0             0        0.1892   1.60965e-15      0.177391        103741        103145        264839   2.94918e-15
    0.0445445       288.486       288.596     0.0960153     -0.650068       2.50129             0       7.04514      0.834839             0       30.5451      -5.19192             0       4.03762             0             0       0.18772   1.71169e-15      0.183828        103751        103147        264867   3.13614e-15
     0.045045       288.531        288.59     0.0964827      -1.00768       2.30254             0       6.90337      0.763103             0       33.0905      -4.94321             0       3.40218             0             0      0.186226   1.81529e-15      0.190322        103761        103148        264886   3.32595e-15
    0.0455455       288.585       288.585     0.0984515      -1.93845       2.09845             0       6.75138      0.684071             0        35.449      -4.64221             0       2.83062             0             0        0.1846   1.93462e-15       0.19739        103769        103149        264818   3.54458e-15