#           y             T         TMean   TPrime2Mean           U_x           U_y           U_z       UMean_x       UMean_y       UMean_z UPrime2Mea... UPrime2Mea... UPrime2Mea... UPrime2Mea... UPrime2Mea... UPrime2Mea...            O2           H2O          C3H8             p         pMean   pPrime2Mean           CO2
  1.11022e-19       288.799       288.163      0.189943       23.0411  -1.75065e-18             0       16.9469   5.52658e-18             0        40.181  -2.68272e-17             0   2.49729e-17             0             0      0.228538   1.32624e-11    0.00635834        104446        103165        274406   2.42992e-11
  0.000500501       288.862       288.163      0.195618       23.0614   -0.00789214             0        16.952     0.0249144             0       40.1122      -0.12094             0       0.11258             0             0      0.227801   2.31843e-11    0.00955847        104445        103165        274395   4.24779e-11
     0.001001       288.926       288.163      0.201313       23.0816    -0.0158005             0        16.957     0.0498307             0       40.0431     -0.241827             0       0.22543             0             0      0.227062   3.31652e-11     0.0127722        104445        103164        274385   6.07648e-11
    0.0015015       289.248       288.169      0.216768        23.109    -0.0318186             0       16.9603     0.0757048             0       39.7934     -0.336264             0      0.472641             0             0      0.224759   7.26342e-11     0.0227848        104444        103164        274357   1.33079e-10
     0.002002       289.573       288.174      0.232252       23.1365     -0.047772             0       16.9635      0.101585             0       39.5424     -0.430442             0      0.720341             0             0      0.222452   1.12299e-10     0.0328121        104443        103164        274330   2.05752e-10
    0.0025025       290.459       288.187      0.254825       23.1763    -0.0476093             0       16.9341      0.129101             0       38.9497     -0.460088             0       1.08991             0             0      0.219307   2.00597e-10     0.0464864        104440        103163        274343   3.67532e-10
     0.003003        291.35         288.2      0.277494       23.2164    -0.0474844             0       16.9045      0.156625             0       38.3545     -0.489319             0       1.46004             0             0      0.216165   2.89333e-10     0.0601469        104438        103163        274357   5.30112e-10
    0.0035035       293.042       288.222       0.31608       23.2985    -0.0536245             0        16.831      0.185396             0       37.3362     -0.449746             0       1.92332             0             0      0.213548   4.50526e-10     0.0715224        104434        103162        274388   8.25447e-10
     0.004004       294.739       288.244      0.355014       23.3807    -0.0599259             0       16.7574      0.214169             0        36.317     -0.410009             0       2.38725             0             0      0.210936   6.12172e-10     0.0828809        104430        103162        274419   1.12161e-09
    0.0045045       296.935       288.271      0.437207       23.4716    -0.0862135             0        16.659      0.243074             0       35.1797     -0.349806             0       2.93161             0             0      0.208809   8.30117e-10     0.0921261        104426        103161        274450   1.52093e-09
   0.00500501       299.131       288.298       0.52026       23.5635     -0.112366             0       16.5605      0.271965             0       34.0453     -0.289746             0       3.47669             0             0      0.206677   1.04798e-09      0.101396        104422        103160        274483    1.9201e-09
   0.00550551       301.306       288.325      0.688498       23.7498     -0.125131             0       16.4565      0.299547             0       33.1997     -0.243785             0       4.09262             0             0      0.203978   1.25788e-09      0.113133        104416        103160        274566   2.30467e-09
   0.00600601       303.469       288.351      0.857143       23.9371     -0.137328             0       16.3526      0.327087             0       32.3587     -0.198934             0       4.70967             0             0      0.201263   1.46711e-09      0.124935        104410        103159        274648   2.68801e-09
   0.00650651       304.631       288.375        1.0593       24.2101     -0.102772             0       16.2596      0.351296             0         31.89     -0.245518             0       5.41829             0             0      0.197295   1.62134e-09      0.142192        104402        103158        274740   2.97059e-09
   0.00700701       305.771       288.399       1.26063        24.482    -0.0678477             0       16.1669      0.375407             0        31.427     -0.295086             0       6.12913             0             0      0.193314   1.77397e-09      0.159501        104394        103157        274833   3.25025e-09
   0.00750751       305.321       288.418       1.40426        24.675   -0.00706879             0       16.1042      0.392636             0       31.3646     -0.554722             0       6.99676             0             0      0.188476   1.81411e-09      0.180535        104384        103156        274949    3.3238e-09
   0.00800801       304.864       288.436       1.54696       24.8665     0.0535339             0       16.0419       0.40986             0       31.3089     -0.815829             0       7.86728             0             0      0.183657   1.85043e-09       0.20149        104374        103155        275067   3.39034e-09
   0.00850851        303.95       288.447       1.63218       24.9635        0.1033             0       16.0096      0.426783             0       31.6645       -1.1674             0       8.91625             0             0      0.179964   1.65153e-09      0.217549        104364        103154        275311   3.02592e-09
   0.00900901       303.043       288.457       1.71625       25.0566      0.152616             0       15.9771      0.443893             0       32.0208      -1.51509             0       9.96704             0             0      0.176309   1.45024e-09      0.233441        104353        103153        275557    2.6571e-09
   0.00950951       302.544        288.46       1.73722       24.9341      0.177355             0       15.9363      0.471254             0       32.4118      -1.65073             0       11.1176             0             0      0.174732   1.11832e-09      0.240299        104341        103152        275955   2.04896e-09
      0.01001       302.049       288.462        1.7561       24.7999      0.201398             0       15.8945       0.49886             0       32.7962      -1.78023             0       12.2686             0             0      0.173178   7.88368e-10      0.247056        104329        103151        276355   1.44444e-09
    0.0105105       301.769       288.461       1.67259       24.0942      0.191419             0       15.8017      0.538525             0       32.8594      -1.60891             0       13.4458             0             0      0.172751   5.55157e-10      0.248911        104317        103149        276870   1.01715e-09
     0.011011       301.489        288.46       1.58768       23.3719      0.182264             0       15.7074      0.578295             0       32.9203      -1.43329             0       14.6237             0             0      0.172335   3.24853e-10      0.250721        104304        103148        277389   5.95192e-10
    0.0115115       301.168       288.459       1.44024       21.9103      0.209741             0       15.5503      0.622764             0        32.883      -1.06659             0       15.8328             0             0      0.172373   2.23756e-10      0.250557        104294        103146        278057   4.09962e-10
     0.012012       300.833       288.457       1.29146       20.4401      0.236869             0       15.3916      0.667188             0       32.8526     -0.697096             0       17.0426             0             0      0.172419   1.24463e-10      0.250358        104284        103144        278729   2.28039e-10
    0.0125125       299.945       288.451       1.08841       18.6211      0.249804             0       15.1709      0.709772             0       33.1068     -0.214107             0       18.2814             0             0      0.172783   9.85723e-11      0.248774        104278        103142        279573   1.80603e-10
     0.013013       299.027       288.445       0.88506       16.8101      0.261301             0       14.9484      0.752154             0       33.3686      0.269546             0       19.5197             0             0      0.173169   7.30693e-11      0.247094        104272        103141        280425   1.33877e-10
    0.0135135       296.997       288.435      0.670446       15.2995      0.218914             0       14.6633      0.786995             0       33.9194       0.77806             0        20.743             0             0      0.174378   6.20913e-11      0.241841        104271        103139        281524   1.13763e-10
     0.014014       294.964       288.425      0.459079       13.8129      0.173976             0       14.3768       0.82138             0       34.4745       1.28317             0        21.965             0             0      0.175597   5.11111e-11      0.236537        104269        103137        282631    9.3645e-11
    0.0145145       292.831       288.418      0.360418        13.157      0.040486             0        14.045      0.839919             0        35.181       1.67025             0       23.1457             0             0      0.177218    4.0053e-11       0.22949        104269        103135        284002   7.33846e-11
     0.015015       290.732       288.412      0.264375        12.525    -0.0973169             0       13.7125      0.857831             0       35.8862       2.05149             0       24.3248             0             0      0.178783   2.90748e-11      0.222687        104269        103133        285380   5.32705e-11
    0.0155155       289.775       288.411      0.252995       12.6704     -0.374578             0        13.358      0.855471             0       36.5475       2.24429             0       25.4552             0             0      0.178529   2.06784e-11      0.223789        104267        103131        286984   3.78868e-11
     0.016016       288.844        288.41      0.242016       12.8177     -0.648784             0       13.0035      0.852558             0       37.1976       2.43241             0       26.5843             0             0      0.178193   1.24149e-11      0.225248        104266        103129        288596   2.27464e-11
    0.0165165       288.724        288.41      0.243141       13.0227     -0.830582             0       12.6459      0.832938             0       37.5107        2.4793             0       27.6735             0             0      0.175371   8.16992e-12      0.237517        104263        103128        290464   1.49688e-11
     0.017017       288.611       288.411      0.244174       13.2178      -1.00636             0        12.289       0.81305             0       37.8085       2.52416             0       28.7617             0             0      0.172539   4.01982e-12      0.249828        104261        103126        292336   7.36505e-12
    0.0175175       288.706       288.408      0.242586       13.1323       -1.0112             0       11.9497       0.78552             0       37.6744       2.51149             0       29.8231             0             0      0.169429    2.5659e-12       0.26335        104258        103125        294342    4.7012e-12
     0.018018       288.801       288.406      0.240904       13.0469      -1.01613             0       11.6112      0.757963             0       37.5229       2.49766             0       30.8846             0             0      0.166371   1.15414e-12      0.276648        104255        103123        296351   2.11459e-12
    0.0185185       288.882       288.399      0.236702        12.965      -1.02358             0       11.2958      0.729659             0       36.9052       2.45301             0       31.9482             0             0      0.164692   8.71277e-13      0.283945        104252        103121        298457   1.59634e-12
     0.019019       288.961       288.393      0.232558       12.8897      -1.03479             0        10.981      0.701353             0       36.2678       2.40636             0       33.0136             0             0      0.163064   5.95855e-13      0.291024        104250        103120        300564   1.09172e-12
    0.0195195       288.996       288.387      0.229881       12.9795      -1.14099             0       10.6811      0.673025             0       35.1308       2.30897             0       34.1268             0             0       0.16271   5.08713e-13      0.292565        104247        103119        302699   9.32057e-13
      0.02002        289.03       288.382      0.227264       13.0721      -1.24985             0       10.3816      0.644638             0       33.9798       2.20926             0       35.2422             0             0      0.162391   4.22569e-13      0.293948        104244        103117        304827   7.74226e-13
    0.0205205       289.035       288.384       0.22606       13.2324      -1.42224             0       10.0933      0.614833             0       32.4934       2.05381             0       36.4145             0             0      0.162946   3.60379e-13      0.291537        104240        103116        306817   6.60282e-13
     0.021021        289.04       288.386      0.224861       13.3916      -1.59554             0       9.80529      0.584985             0       31.0019       1.89574             0       37.5876             0             0      0.163528    2.9936e-13      0.289008        104237        103115        308797   5.48484e-13
    0.0215215       289.028       288.394      0.223744       13.5266      -1.78964             0       9.52623      0.554151             0       29.3954       1.67787             0       38.7785             0             0      0.164725   2.65043e-13      0.283801        104232        103113        310565   4.85608e-13
     0.022022       289.015       288.403      0.222705       13.6588      -1.98308             0       9.24725       0.52327             0       27.7926       1.45728             0        39.967             0             0      0.165959   2.30952e-13      0.278432        104228        103112        312317   4.23146e-13
    0.0225225       288.987       288.414      0.223334       13.7298      -2.16212             0       8.97015      0.491349             0        26.268       1.17766             0       41.1046             0             0      0.168003   2.01762e-13      0.269545        104223        103111        313710   3.69666e-13
     0.023023       288.958       288.425      0.224029       13.7967      -2.33932             0       8.69295      0.459253             0       24.7535      0.896352             0       42.2364             0             0      0.170082   1.72437e-13      0.260509        104217        103110        315082   3.15936e-13
    0.0235235       288.915       288.435      0.226082       13.7809      -2.47847             0       8.41375      0.423513             0       23.4483      0.580031             0       43.2509             0             0      0.172865    1.4028e-13      0.248411        104210        103109        316041   2.57019e-13
     0.024024       288.872       288.444      0.228216       13.7609      -2.61503             0       8.13486      0.387445             0       22.1563      0.263994             0       44.2575             0             0       0.17563   1.08382e-13       0.23639        104202        103108        316978   1.98576e-13
    0.0245245       288.831       288.453      0.231956       13.6564       -2.7004             0       7.86206      0.344879             0       21.1261    -0.0464291             0       45.1079             0             0      0.178037   8.16235e-14      0.225924        104193        103108        317462    1.4955e-13
     0.025025        288.79       288.462      0.235706       13.5487      -2.78344             0       7.59026      0.302011             0       20.1131     -0.355639             0       45.9498             0             0      0.180389   5.54157e-14      0.215696        104184        103107        317919   1.01532e-13
    0.0255255       288.764       288.471      0.239621       13.3779      -2.82228             0       7.33762      0.253409             0       19.4254     -0.641816             0       46.6268             0             0      0.181698   3.96715e-14      0.210007        104173        103107        317858   7.26856e-14
     0.026026       288.739       288.481      0.243379       13.2048      -2.85968             0       7.08634      0.204656             0       18.7594     -0.928198             0       47.2951             0             0      0.182962   2.44002e-14      0.204513        104162        103107        317769   4.47057e-14
    0.0265265       288.724       288.489      0.244278       12.9871      -2.87077             0       6.85975      0.153131             0       18.4885      -1.21833             0       47.8064             0             0      0.183409   1.77504e-14       0.20257        104150        103107        317158    3.2522e-14
     0.027027       288.709       288.498      0.245003       12.7674      -2.88067             0       6.63454      0.101573             0       18.2427      -1.51119             0       48.3092             0             0       0.18383   1.13171e-14      0.200739        104138        103107        316520    2.0735e-14
    0.0275275       288.696       288.505      0.242682       12.5113      -2.86989             0       6.43365     0.0494358             0       18.4369      -1.85169             0       48.6645             0             0        0.1838   8.67587e-15      0.200871        104124        103107        315407   1.58958e-14
     0.028028       288.683       288.511      0.240267       12.2544      -2.85829             0        6.2342   -0.00265854             0       18.6549      -2.19612             0       49.0105             0             0      0.183752   6.11413e-15      0.201077        104111        103107        314272   1.12022e-14
    0.0285285       288.667       288.514      0.236271       11.9822      -2.83308             0       6.05915    -0.0540312             0       19.2754      -2.60684             0       49.2016             0             0      0.183421   4.89191e-15      0.202518        104097        103108        312766   8.96289e-15
     0.029029        288.65       288.517       0.23232        11.711      -2.80815             0        5.8856     -0.105324             0       19.9123      -3.02036             0       49.3808             0             0       0.18308   3.71082e-15      0.203998        104083        103108        311247   6.79892e-15
    0.0295295        288.63       288.516      0.229087       11.4551      -2.78765             0       5.73655     -0.155326             0       20.8157      -3.47936             0       49.3653             0             0      0.182598   3.19782e-15      0.206096        104070        103109        309512     5.859e-15
      0.03003        288.61       288.516      0.225907       11.2008      -2.76738             0       5.58871     -0.205084             0       21.7265      -3.93881             0       49.3336             0             0       0.18212   2.70459e-15      0.208173        104057        103109        307768   4.95532e-15
    0.0305305       288.591       288.514      0.223553       10.9708       -2.7507             0       5.45985     -0.251021             0       22.7538       -4.4052             0       49.0471             0             0      0.181717   2.52113e-15      0.209925        104044        103110        305889   4.61918e-15
     0.031031       288.572       288.513      0.221168       10.7417      -2.73267             0       5.33163     -0.296375             0       23.7812      -4.86923             0       48.7408             0             0      0.181324   2.34594e-15      0.211635        104032        103111        304004   4.29819e-15
    0.0315315       288.555       288.511      0.218302       10.5263      -2.69417             0       5.21317     -0.332907             0       24.8089      -5.29741             0       48.1356             0             0      0.181075   2.29579e-15      0.212716        104021        103113        302027   4.20631e-15
     0.032032       288.537       288.509      0.215378       10.3122      -2.65323             0       5.09555     -0.368627             0       25.8309      -5.72176             0       47.5097             0             0      0.180834   2.24806e-15      0.213766        104010        103114        300050   4.11887e-15
    0.0325325       288.522       288.507      0.211614       10.1186      -2.57668             0       4.99025     -0.392449             0       26.7675      -6.08997             0       46.5799             0             0      0.180699   2.23569e-15      0.214354        104001        103116        298077    4.0962e-15
     0.033033       288.507       288.505      0.207787       9.92887      -2.49791             0       4.88673     -0.415489             0          27.7      -6.45689             0       45.6333             0             0      0.180566   2.22395e-15      0.214932        103991        103117        296108   4.07469e-15
    0.0335335       288.497       288.504      0.203068       9.79313      -2.38765             0       4.80819     -0.427469             0        28.575      -6.80544             0        44.448             0             0      0.180463    2.2212e-15      0.215377        103983        103119        294189   4.06966e-15
     0.034034       288.488       288.503      0.198343       9.66387      -2.27545             0       4.73211     -0.438968             0       29.4564      -7.15325             0       43.2511             0             0      0.180361   2.21863e-15       0.21582        103974        103120        292280   4.06494e-15
    0.0345345       288.482       288.502      0.193522       9.62344      -2.13653             0       4.68975     -0.443881             0        30.423      -7.49099             0       41.8945             0             0      0.180264   2.21839e-15      0.216242        103968        103122        290523    4.0645e-15
     0.035035       288.477       288.501      0.188752       9.59176      -1.99561             0       4.65031     -0.448679             0       31.3981      -7.82339             0       40.5295             0             0      0.180167   2.21813e-15      0.216663        103961        103124        288779   4.06403e-15
    0.0355355       288.477         288.5      0.184646       9.67625      -1.82815             0       4.64975     -0.451943             0        32.487      -8.08494             0       39.0537             0             0      0.180072   2.21772e-15      0.217077        103956        103126        287210   4.06327e-15
     0.036036       288.477       288.499      0.180557       9.77109      -1.65917             0       4.65187     -0.454935             0       33.5888      -8.34186             0       37.5729             0             0      0.179978   2.21719e-15      0.217486        103952        103128        285651    4.0623e-15
    0.0365365       288.482       288.499      0.176688       9.99939      -1.47052             0       4.68846     -0.454434             0       34.8574      -8.53906             0       36.0299             0             0      0.179897    2.2152e-15      0.217836        103949        103130        284229   4.05867e-15
     0.037037       288.487       288.499      0.172864       10.2379      -1.28185             0       4.72696     -0.453314             0       36.1499      -8.73799             0       34.4829             0             0      0.179822   2.21278e-15      0.218164        103947        103132        282822   4.05423e-15
    0.0375375       288.494       288.499      0.169612       10.6042      -1.09283             0       4.78932     -0.444445             0       37.7401      -8.95843             0       32.8867             0             0      0.179807   2.20485e-15      0.218227        103948        103134        281612   4.03969e-15
     0.038038       288.502       288.499      0.166558       10.9771     -0.906308             0       4.85361     -0.435069             0       39.3367      -9.18394             0       31.2877             0             0      0.179799   2.19621e-15      0.218263        103949        103136        280419   4.02387e-15
    0.0385385       288.513       288.497       0.16591       11.4319     -0.750248             0       4.94136     -0.419523             0       41.0112      -9.47121             0        29.655             0             0      0.179871   2.17902e-15      0.217954        103953        103139        279422   3.99238e-15
     0.039039       288.523       288.494        0.1655       11.8867     -0.599356             0       5.03127     -0.403766             0       42.6573      -9.75979             0       28.0231             0             0      0.179949   2.16107e-15      0.217611        103957        103141        278440   3.95948e-15
    0.0395395       288.532       288.489      0.167902       12.3419     -0.509553             0       5.14675     -0.385504             0       43.9668      -10.0638             0       26.4011             0             0      0.180119   2.13402e-15      0.216872        103964        103143        277643   3.90992e-15
      0.04004       288.539       288.482      0.170452        12.791     -0.425683             0       5.26304     -0.367216             0       45.2496      -10.3623             0       24.7817             0             0      0.180302    2.1057e-15      0.216076        103971        103145        276872   3.85804e-15
    0.0405405       288.538       288.473      0.174699       13.1689     -0.410044             0       5.38863     -0.348619             0       46.2253      -10.5986             0       23.1934             0             0      0.180636   2.06285e-15      0.214624        103980        103147        276398   3.77953e-15
     0.041041       288.535       288.463      0.179001       13.5394     -0.398037             0       5.51215     -0.329922             0       47.2095      -10.8286             0       21.6077             0             0      0.180986   2.01839e-15      0.213105        103989        103149        275945   3.69806e-15
    0.0415415       288.521       288.452      0.183916       13.8271     -0.426692             0       5.61257     -0.310099             0       48.2881       -10.988             0        20.052             0             0      0.181507   1.95588e-15       0.21084        103998        103151        275708   3.58353e-15
     0.042042       288.507        288.44      0.188774       14.1092     -0.455902             0       5.70951     -0.290187             0       49.3759       -11.136             0       18.4969             0             0      0.182031   1.89295e-15      0.208563        104007        103153        275484   3.46824e-15
    0.0425425       288.492       288.428      0.193008       14.3303     -0.491171             0        5.7685     -0.269314             0       50.5644      -11.1589             0       16.9488             0             0      0.182581   1.82553e-15      0.206168        104016        103155        275384   3.34472e-15
     0.043043       288.477       288.417      0.197149       14.5486     -0.525721             0       5.82467     -0.248824             0        51.708       -11.156             0       15.3989             0             0       0.18313   1.75772e-15      0.203783        104025        103157        275300   3.22047e-15
    0.0435435       288.469       288.409      0.200295       14.7382     -0.552642             0       5.85102     -0.232418             0       52.3734      -10.8789             0       13.8292             0             0      0.183653   1.68571e-15       0.20151        104032        103159        275387   3.08854e-15
     0.044044       288.462       288.401      0.203426       14.9334     -0.579195             0       5.87392     -0.216804             0       52.9707      -10.5717             0       12.2625             0             0      0.184169   1.61351e-15      0.199263        104039        103161        275482   2.95625e-15
    0.0445445        288.47       288.395      0.206405       15.1863     -0.601938             0       5.86116     -0.209395             0       52.8616        -9.953             0       10.7263             0             0      0.184622   1.53933e-15      0.197293        104044        103163        275659   2.82034e-15
     0.045045       288.479        288.39      0.209216       15.4531     -0.626076             0       5.84287     -0.202053             0       52.7278      -9.31035             0       9.20124             0             0      0.185063   1.46706e-15      0.195378        104049        103165        275842   2.68793e-15
    0.0455455       288.492       288.383      0.210313       15.8602     -0.664316             0       5.76873       -0.1954             0       52.3441      -8.42599             0       7.78794             0             0      0.185375   1.41418e-15       0.19402        104052        103166        276094   2.59103e-15