#           y             T         TMean   TPrime2Mean           U_x           U_y           U_z       UMean_x       UMean_y       UMean_z UPrime2Mea... UPrime2Mea... UPrime2Mea... UPrime2Mea... UPrime2Mea... UPrime2Mea...            O2           H2O          C3H8             p         pMean   pPrime2Mean           CO2
  1.11022e-19       288.532       288.556     0.0913697       10.4868   5.53849e-17             0       12.4252   4.93405e-19             0       34.3292  -1.13601e-18             0   7.04843e-18             0             0      0.186922   2.42653e-15      0.187297        103168        103122        283567   4.44585e-15
  0.000500501       288.531       288.566     0.0902017        10.531      0.249681             0       12.3823    0.00222432             0       33.9189   -0.00512126             0     0.0317751             0             0       0.18709   2.41572e-15      0.186565        103167        103122        283575   4.42605e-15
     0.001001        288.53       288.575     0.0890424       10.5753       0.49931             0       12.3393    0.00445057             0        33.507    -0.0101773             0     0.0636459             0             0      0.187259    2.4049e-15      0.185832        103167        103122        283584   4.40622e-15
    0.0015015        288.53       288.592     0.0922061       10.6291      0.722973             0        12.244    0.00763629             0       32.3349     0.0172944             0      0.143292             0             0        0.1876   2.38572e-15      0.184347        103167        103122        283584   4.37108e-15
     0.002002       288.531        288.61     0.0953979       10.6827      0.946397             0       12.1488     0.0108176             0       31.1619     0.0448218             0      0.223159             0             0      0.187941    2.3666e-15      0.182865        103166        103122        283585   4.33605e-15
    0.0025025       288.541       288.623      0.105597       10.6828       1.11008             0       12.0607     0.0129118             0       29.7554     0.0861809             0      0.358118             0             0      0.188104   2.36246e-15      0.182157        103165        103121        283578   4.32847e-15
     0.003003       288.551       288.635      0.115794       10.6826       1.27364             0       11.9727     0.0149985             0        28.351      0.127429             0      0.493388             0             0      0.188265   2.35847e-15      0.181455        103164        103121        283571   4.32116e-15
    0.0035035       288.586       288.641      0.125655       10.6388       1.41757             0       11.9099     0.0158431             0       27.2759      0.150191             0      0.680124             0             0      0.188186    2.3792e-15      0.181801        103163        103121        283604   4.35914e-15
     0.004004       288.621       288.647      0.135472       10.5942       1.56195             0       11.8471     0.0166909             0       26.2039      0.172811             0      0.867215             0             0      0.188106   2.40008e-15      0.182148        103162        103121        283638   4.39739e-15
    0.0045045       288.687       288.652      0.139765       10.4518       1.76252             0       11.7884      0.017919             0       25.4956       0.17772             0       1.09844             0             0      0.187973   2.43941e-15      0.182727        103161        103120        283652   4.46946e-15
   0.00500501       288.754       288.657      0.143966       10.3078         1.964             0       11.7297     0.0191618             0       24.7902      0.182517             0       1.33008             0             0       0.18784   2.47874e-15      0.183303        103159        103120        283667   4.54151e-15
   0.00550551       288.829       288.665      0.138989       10.0074       2.25632             0       11.6612     0.0218528             0        24.377      0.176156             0       1.60342             0             0      0.187792   2.51675e-15      0.183512        103158        103120        283693   4.61115e-15
   0.00600601       288.904       288.673      0.133949       9.70568       2.54923             0       11.5927     0.0245406             0       23.9671      0.169615             0       1.87734             0             0      0.187746   2.55456e-15      0.183712        103156        103119        283720   4.68043e-15
   0.00650651       288.966       288.683      0.123644       9.29584       2.89054             0       11.5217     0.0269703             0       23.8183       0.14816             0       2.19884             0             0      0.187881   2.57611e-15      0.183127        103154        103119        283769   4.71992e-15
   0.00700701       289.028       288.694      0.113385       8.88647       3.23113             0       11.4508     0.0293762             0       23.6727      0.126401             0       2.52114             0             0      0.188018   2.59751e-15      0.182532        103152        103118        283818   4.75912e-15
   0.00750751       289.083         288.7      0.106289       8.51016       3.52059             0       11.3894     0.0301138             0       23.7514     0.0832568             0       2.90035             0             0      0.188341   2.60762e-15      0.181124        103150        103118        283900   4.77765e-15
   0.00800801       289.138       288.706     0.0992497       8.13628       3.80818             0       11.3283     0.0308241             0       23.8316     0.0399065             0       3.28062             0             0      0.188666   2.61767e-15      0.179712        103148        103118        283983   4.79606e-15
   0.00850851       289.183       288.707     0.0956538       7.91199       3.97983             0       11.2795     0.0298644             0       24.0053    -0.0161176             0       3.72623             0             0       0.18905   2.62325e-15      0.178043        103146        103117        284111   4.80629e-15
   0.00900901       289.228       288.709     0.0920719       7.69063        4.1497             0       11.2309     0.0288719             0       24.1764    -0.0720037             0       4.17303             0             0      0.189432   2.62877e-15      0.176381        103144        103116        284240   4.81639e-15
   0.00950951       289.259       288.708     0.0892555       7.62941       4.22247             0       11.1935     0.0260937             0       24.2075     -0.120354             0        4.6845             0             0      0.189721   2.63035e-15      0.175127        103142        103116        284421    4.8193e-15
      0.01001       289.289       288.707       0.08645       7.57023       4.29457             0       11.1563     0.0232754             0       24.2327     -0.168444             0       5.19711             0             0      0.190008   2.63187e-15      0.173879        103140        103115        284602   4.82208e-15
    0.0105105        289.31       288.706      0.084177       7.61072       4.33437             0       11.1287      0.018489             0       23.9705     -0.203832             0       5.76552             0             0      0.190229   2.63013e-15      0.172918        103138        103115        284824   4.81888e-15
     0.011011       289.331       288.704     0.0819128       7.65211       4.37467             0       11.1013     0.0136586             0       23.7018     -0.239187             0       6.33492             0             0       0.19045   2.62834e-15      0.171955        103136        103114        285047   4.81561e-15
    0.0115115       289.343       288.701     0.0800377       7.73376       4.43718             0       11.0806    0.00687085             0       23.1436     -0.273072             0       6.94819             0             0        0.1907   2.62473e-15      0.170868        103134        103113        285265   4.80899e-15
     0.012012       289.356       288.698     0.0781693       7.81576       4.50076             0         11.06   4.51374e-05             0       22.5791     -0.306987             0       7.56211             0             0      0.190951   2.62109e-15      0.169777        103132        103113        285484   4.80232e-15
    0.0125125        289.36       288.695     0.0765705        7.9119       4.60721             0       11.0414   -0.00832407             0       21.7609     -0.342131             0       8.20228             0             0      0.191241   2.61659e-15      0.168516        103130        103112        285743   4.79407e-15
     0.013013       289.364       288.692     0.0749748       8.00845       4.71461             0       11.0226    -0.0166835             0       20.9356     -0.376442             0       8.84211             0             0       0.19153    2.6121e-15      0.167259        103128        103111        286000   4.78586e-15
    0.0135135       289.361        288.69     0.0734941       8.12072       4.85744             0       10.9971    -0.0246784             0        19.849      -0.37957             0       9.46897             0             0       0.19178   2.60827e-15      0.166176        103125        103110        286227   4.77884e-15
     0.014014       289.359       288.688     0.0720201       8.23377       5.00068             0        10.971    -0.0325725             0       18.7554      -0.38076             0       10.0939             0             0      0.192026    2.6045e-15      0.165102        103123        103110        286452   4.77193e-15
    0.0145145       289.352       288.687     0.0707804       8.37411       5.15778             0       10.9266    -0.0369665             0       17.4214     -0.314705             0        10.651             0             0      0.192193    2.6027e-15      0.164379        103121        103109        286629   4.76863e-15
     0.015015       289.346       288.686     0.0695526       8.51558       5.31459             0       10.8816    -0.0412348             0       16.0837     -0.247262             0       11.2053             0             0      0.192358   2.60093e-15      0.163663        103118        103108        286807    4.7654e-15
    0.0155155       289.337       288.686     0.0687055       8.69379       5.46209             0       10.8143    -0.0414346             0       14.6274     -0.134926             0       11.6726             0             0      0.192471   2.60052e-15      0.163169        103116        103108        287011   4.76464e-15
     0.016016       289.329       288.685     0.0678631       8.87333       5.60869             0       10.7466    -0.0416246             0       13.1724    -0.0234117             0       12.1378             0             0      0.192583   2.60011e-15      0.162681        103114        103107        287212   4.76389e-15
    0.0165165       289.321       288.685     0.0671595       9.09292       5.72818             0       10.6645    -0.0415143             0       11.7553     0.0632213             0       12.5434             0             0      0.192664   2.59992e-15      0.162329        103112        103106        287369   4.76354e-15
     0.017017       289.314       288.684     0.0664622       9.31378       5.84637             0       10.5822    -0.0415036             0       10.3443      0.147552             0        12.947             0             0      0.192745   2.59973e-15      0.161977        103110        103106        287523   4.76319e-15
    0.0175175       289.304       288.684     0.0659479       9.57052       5.92754             0        10.495    -0.0443208             0       9.10418      0.166462             0        13.297             0             0      0.192827   2.59941e-15      0.161621        103107        103106        287609    4.7626e-15
     0.018018       289.293       288.683     0.0654434       9.82819       6.00725             0       10.4076    -0.0472136             0       7.87535      0.183386             0       13.6434             0             0      0.192909   2.59907e-15      0.161265        103105        103105        287691   4.76199e-15
    0.0185185       289.278       288.683     0.0652023       10.1109       6.04775             0       10.3177    -0.0521282             0       6.94773      0.147099             0       13.8944             0             0      0.192992   2.59826e-15      0.160905        103103        103105        287673   4.76049e-15
     0.019019       289.262       288.682     0.0649647       10.3939       6.08678             0       10.2277    -0.0570799             0       6.03626      0.109547             0       14.1403             0             0      0.193074   2.59739e-15      0.160546        103101        103104        287651    4.7589e-15
    0.0195195       289.246       288.683     0.0648151       10.6851       6.08863             0       10.1368    -0.0629704             0       5.53378     0.0400007             0       14.2569             0             0      0.193145   2.59523e-15      0.160238        103099        103104        287513   4.75494e-15
      0.02002       289.229       288.683     0.0646465       10.9757       6.08899             0       10.0461     -0.068925             0       5.04934     -0.030541             0        14.368             0             0      0.193216   2.59296e-15      0.159929        103097        103104        287374   4.75079e-15
    0.0205205       289.214       288.685     0.0640239       11.2526       6.05354             0       9.95799    -0.0764214             0       4.99796     -0.124967             0       14.3472             0             0      0.193287   2.58814e-15      0.159621        103095        103104        287179   4.74196e-15
     0.021021       289.199       288.688     0.0633737       11.5278       6.01643             0       9.86999    -0.0839785             0       4.96285     -0.220106             0       14.3207             0             0      0.193358   2.58318e-15      0.159313        103093        103104        286983   4.73286e-15
    0.0215215       289.184       288.691     0.0620944       11.7644       5.94147             0       9.78384    -0.0929211             0       5.29872     -0.331515             0        14.162             0             0       0.19343   2.57479e-15         0.159        103091        103104        286750    4.7175e-15
     0.022022       289.169       288.694      0.060802       11.9984       5.86461             0       9.69756     -0.101859             0       5.64687     -0.443009             0       13.9972             0             0      0.193501   2.56622e-15       0.15869        103088        103105        286514   4.70179e-15
    0.0225225       289.156       288.698     0.0592232       12.1718       5.74658             0       9.60835     -0.110685             0       6.26187     -0.556363             0       13.6971             0             0      0.193561   2.55354e-15       0.15843        103086        103105        286200   4.67857e-15
     0.023023       289.143       288.702     0.0576536       12.3418       5.62667             0        9.5189      -0.11946             0       6.88488     -0.669195             0       13.3909             0             0       0.19362    2.5408e-15      0.158176        103085        103106        285882   4.65521e-15
    0.0235235       289.131       288.706     0.0562763        12.441       5.46768             0        9.4244     -0.127168             0       7.67388     -0.771187             0         12.96             0             0      0.193649    2.5266e-15      0.158049        103083        103106        285498   4.62921e-15
     0.024024       289.119        288.71     0.0549222        12.537       5.30744             0       9.32977     -0.134814             0        8.4673     -0.872068             0       12.5239             0             0      0.193676   2.51234e-15      0.157932        103081        103107        285113   4.60307e-15
    0.0245245       289.108       288.715     0.0540283       12.5698       5.12214             0       9.23272     -0.141216             0       9.34846     -0.950929             0       11.9859             0             0      0.193661   2.49664e-15      0.157996        103079        103107        284730   4.57431e-15
     0.025025       289.096       288.719      0.053139       12.6006       4.93688             0       9.13584     -0.147544             0       10.2302      -1.02803             0       11.4442             0             0      0.193645   2.48038e-15      0.158064        103077        103108        284344   4.54451e-15
    0.0255255       289.079       288.724     0.0523395       12.5929       4.75235             0       9.04223     -0.152464             0       11.1222      -1.07168             0       10.8304             0             0      0.193618   2.45333e-15      0.158184        103076        103109        283918   4.49495e-15
     0.026026       289.063       288.728     0.0515186       12.5849        4.5693             0        8.9491     -0.157294             0       12.0099      -1.11323             0       10.2146             0             0      0.193592    2.4261e-15      0.158297        103074        103110        283491   4.44506e-15
    0.0265265       289.042       288.734     0.0503092       12.5701       4.41329             0       8.86478     -0.160482             0       12.8195      -1.11625             0       9.56342             0             0      0.193598   2.39565e-15       0.15827        103073        103111        283047   4.38927e-15
     0.027027       289.022        288.74     0.0490659       12.5562       4.25947             0       8.78108     -0.163579             0       13.6198      -1.11731             0       8.91242             0             0      0.193609   2.36538e-15      0.158223        103071        103111        282602   4.33381e-15
    0.0275275       289.002       288.748     0.0472277       12.5584       4.14394             0       8.70814     -0.165097             0       14.2573       -1.0838             0       8.26402             0             0      0.193702   2.33829e-15       0.15782        103070        103112        282140   4.28419e-15
     0.028028       288.982       288.755     0.0454153       12.5618       4.03052             0       8.63582     -0.166528             0         14.88      -1.04918             0       7.61761             0             0      0.193802   2.31063e-15      0.157385        103068        103113        281679    4.2335e-15
    0.0285285        288.96       288.763     0.0440373       12.5854       3.95251             0       8.57385     -0.166475             0       15.2536     -0.995897             0         7.005             0             0      0.194021   2.27316e-15       0.15643        103066        103113        281230   4.16486e-15
     0.029029       288.939       288.771      0.042745       12.6105       3.87623             0       8.51256     -0.166303             0       15.6087     -0.942948             0       6.39594             0             0      0.194252   2.23502e-15      0.155426        103065        103114        280788   4.09498e-15
    0.0295295       288.914       288.777     0.0428456         12.66       3.82793             0       8.46213      -0.16419             0       15.6626     -0.895429             0       5.84466             0             0      0.194667   2.18589e-15       0.15362        103063        103115        280447   4.00496e-15
      0.03003        288.89       288.783     0.0429828       12.7111        3.7804             0       8.41251     -0.161924             0       15.7006     -0.848797             0       5.29814             0             0      0.195098   2.13608e-15      0.151747        103062        103115        280114   3.91369e-15
    0.0305305       288.861       288.785     0.0436952       12.7872       3.74493             0       8.37574     -0.157279             0       15.4911     -0.816071             0       4.82613             0             0      0.195772   2.07561e-15      0.148817        103060        103116        279907    3.8029e-15
     0.031031       288.833       288.787     0.0443871       12.8628       3.70803             0       8.33983     -0.152503             0       15.2742     -0.783533             0       4.35934             0             0      0.196442    2.0148e-15      0.145904        103059        103117        279703   3.69149e-15
    0.0315315       288.806       288.786     0.0447694       12.9305       3.64938             0       8.31701     -0.145747             0       14.9453     -0.753839             0       3.97142             0             0      0.197058   1.94894e-15      0.143227        103057        103117        279552   3.57082e-15
     0.032032        288.78       288.785     0.0451179       12.9951       3.58702             0       8.29476     -0.138934             0       14.6172     -0.723791             0       3.58822             0             0      0.197651   1.88307e-15      0.140645        103056        103118        279408   3.45014e-15
    0.0325325       288.763       288.783     0.0449728       13.0154       3.47049             0       8.28086     -0.131286             0       14.3012     -0.688559             0       3.27416             0             0      0.197924   1.81705e-15      0.139461        103054        103118        279361   3.32917e-15
     0.033033       288.746        288.78     0.0447981       13.0335       3.34999             0       8.26704     -0.123659             0       13.9901     -0.653256             0       2.96386             0             0      0.198177   1.75213e-15       0.13836        103053        103118        279320   3.21022e-15
    0.0335335       288.739       288.776     0.0442062       13.0203       3.17327             0       8.25446     -0.116329             0       13.7467     -0.616928             0       2.70682             0             0      0.198157    1.7028e-15      0.138447        103051        103119        279360   3.11984e-15
     0.034034       288.733       288.772     0.0435838       13.0086       2.99462             0       8.24168     -0.109053             0       13.5076     -0.580982             0       2.45265             0             0      0.198136   1.65367e-15      0.138542        103050        103119        279402   3.02983e-15
    0.0345345       288.731       288.767     0.0425437       13.0173       2.78943             0       8.22609     -0.102507             0       13.3256     -0.550258             0       2.23795             0             0      0.198086   1.60735e-15      0.138759        103049        103119        279481   2.94497e-15
     0.035035       288.729       288.762     0.0414879       13.0289       2.58553             0       8.21033    -0.0960175             0       13.1452     -0.520043             0       2.02552             0             0      0.198034   1.56098e-15      0.138984        103048        103120        279565   2.86001e-15
    0.0355355        288.73       288.755     0.0402252       13.0777       2.39877             0       8.19224    -0.0902874             0       12.9851     -0.496588             0       1.84339             0             0      0.197959   1.51381e-15      0.139312        103046        103120        279724   2.77359e-15
     0.036036       288.733       288.748     0.0389825       13.1264       2.21558             0       8.17414    -0.0846057             0       12.8247     -0.473546             0       1.66318             0             0      0.197862    1.4689e-15      0.139731        103045        103120        279883   2.69131e-15
    0.0365365       288.746       288.741      0.037998       13.1722       2.07835             0       8.15606    -0.0795487             0         12.66     -0.455834             0       1.50762             0             0      0.197498   1.45311e-15      0.141312        103044        103121        280056   2.66236e-15
     0.037037        288.76       288.733     0.0370669       13.2124       1.94529             0        8.1381    -0.0745307             0       12.4947     -0.438312             0       1.35374             0             0      0.197111   1.43951e-15      0.142994        103043        103121        280229   2.63745e-15
    0.0375375       288.786       288.726     0.0368033       13.1833       1.86438             0       8.12165    -0.0700003             0       12.3208     -0.423169             0        1.2208             0             0      0.196436   1.45348e-15      0.145933        103043        103121        280407   2.66305e-15
     0.038038       288.814       288.719     0.0365845       13.1453       1.78743             0       8.10532    -0.0655121             0       12.1463     -0.407932             0       1.08938             0             0      0.195732   1.47062e-15      0.148993        103042        103121        280587   2.69444e-15
    0.0385385       288.858       288.714     0.0369107       12.9992       1.75856             0       8.09053    -0.0615371             0       11.9651     -0.391564             0      0.976406             0             0      0.194688   1.52626e-15      0.153533        103042        103121        280792   2.79638e-15
     0.039039       288.902       288.708     0.0372466       12.8476       1.73129             0       8.07579    -0.0576069             0       11.7832     -0.374872             0      0.864779             0             0      0.193648   1.58378e-15      0.158052        103041        103121        280998   2.90179e-15
    0.0395395       288.944       288.704     0.0376975       12.6323       1.72296             0       8.06161    -0.0542051             0       11.5931      -0.35436             0      0.769102             0             0      0.192666   1.66366e-15      0.162323        103041        103121        281221   3.04813e-15
      0.04004       288.984         288.7     0.0381434       12.4205       1.71226             0        8.0474    -0.0508528             0       11.4028     -0.333605             0      0.674658             0             0      0.191725   1.74117e-15      0.166413        103041        103121        281447   3.19014e-15
    0.0405405       289.002       288.697     0.0385301       12.2488       1.67447             0       8.03291    -0.0480694             0       11.2087     -0.310057             0       0.59439             0             0      0.191264   1.79152e-15      0.168419        103041        103121        281708    3.2824e-15
     0.041041       289.019       288.694     0.0389067       12.0857       1.63288             0       8.01843    -0.0453364             0       11.0158     -0.286657             0      0.515301             0             0      0.190832   1.83942e-15      0.170297        103041        103122        281970   3.37017e-15
    0.0415415       289.015       288.691     0.0391708       12.0183       1.54866             0       8.00397    -0.0431678             0       10.8372     -0.264911             0      0.449411             0             0      0.190729   1.85992e-15      0.170743        103041        103122        282233   3.40772e-15
     0.042042       289.009       288.689     0.0394284       11.9591       1.46138             0       7.98953    -0.0410426             0       10.6613      -0.24361             0      0.384594             0             0      0.190642   1.87962e-15       0.17112        103041        103122        282493   3.44382e-15
    0.0425425       288.977       288.687     0.0396146       11.9896       1.34085             0       7.97535    -0.0393896             0       10.5135     -0.227173             0      0.331492             0             0      0.190727   1.89065e-15      0.170751        103040        103122        282721   3.46403e-15
     0.043043       288.942       288.685     0.0398087       12.0291       1.21548             0       7.96104     -0.037755             0       10.3674     -0.211067             0      0.279323             0             0      0.190818   1.90026e-15      0.170355        103040        103122        282950   3.48162e-15
    0.0435435       288.882       288.684     0.0400871       12.1649       1.03866             0       7.94534    -0.0363167             0       10.2377     -0.198472             0      0.237075             0             0      0.190974   1.89462e-15      0.169678        103040        103122        283192    3.4713e-15
     0.044044       288.823       288.683     0.0403648       12.3065      0.856687             0       7.92897    -0.0348653             0       10.1065     -0.185732             0      0.195629             0             0      0.191116   1.88956e-15      0.169061        103040        103122        283432   3.46202e-15
    0.0445445       288.769       288.682     0.0406358       12.5091       0.62127             0       7.90577    -0.0332781             0       9.96014     -0.171495             0      0.162496             0             0      0.191115   1.89037e-15      0.169064        103040        103122        283652   3.46352e-15
     0.045045       288.721       288.682     0.0408999       12.7063      0.387446             0       7.88056    -0.0316368             0        9.8054     -0.156551             0      0.130022             0             0      0.191091   1.89469e-15      0.169171        103039        103122        283868   3.47142e-15
    0.0455455       288.729       288.682     0.0410947       12.8489       0.16972             0       7.83521    -0.0294487             0       9.56609     -0.134455             0      0.104206             0             0      0.190822   1.93435e-15       0.17034        103039        103122        284033   3.54409e-15