#           y             T         TMean   TPrime2Mean           U_x           U_y           U_z       UMean_x       UMean_y       UMean_z UPrime2Mea... UPrime2Mea... UPrime2Mea... UPrime2Mea... UPrime2Mea... UPrime2Mea...            O2           H2O          C3H8             p         pMean   pPrime2Mean           CO2
  1.11022e-19       288.639       288.024     0.0851153       30.4138  -3.21331e-16             0       22.8843  -3.97585e-16             0       12.6014  -1.50483e-16             0   1.09087e-16             0             0      0.229995   8.92212e-08   2.04613e-05        104557        103106        236337    1.6347e-07
  0.000500501       288.674       288.031     0.0993962       30.3346     -0.150312             0       22.8852     0.0111345             0       12.6196      -0.15624             0     0.0339175             0             0      0.229983   5.74672e-07   7.00904e-05        104555        103106        236270   1.05291e-06
     0.001001        288.71       288.038      0.116051       30.2556      -0.30066             0       22.8862     0.0222674             0       12.6379     -0.312501             0     0.0679794             0             0       0.22997   1.07488e-06   0.000120421        104552        103106        236203   1.96938e-06
    0.0015015       289.066       288.115       1.31737       30.2323      -0.46886             0       22.8899     0.0325629             0       12.7063     -0.479178             0      0.174143             0             0      0.229859   8.93856e-06   0.000520975        104540        103106        236001   1.63771e-05
     0.002002       289.429       288.194       2.60532       30.2081     -0.636954             0       22.8937     0.0428573             0        12.775     -0.645852             0      0.280754             0             0      0.229746   1.70944e-05   0.000927795        104528        103106        235799   3.13201e-05
    0.0025025         291.7       288.598       25.4645       29.9732     -0.778674             0       22.8999     0.0528581             0       12.9358     -0.811888             0      0.498862             0             0      0.229102    9.7998e-05     0.0028952        104528        103105        235733   0.000179551
     0.003003       294.026       289.007       48.9389       29.7395     -0.919913             0       22.9062      0.062844             0       13.0978     -0.978493             0      0.718554             0             0      0.228444   0.000182115    0.00489134        104528        103105        235668   0.000333669
    0.0035035        305.46        290.08       174.348       29.7209     -0.981439             0       22.9353     0.0703475             0        13.482      -1.23921             0       1.20053             0             0      0.225434   0.000798588      0.011648        104529        103104        235549    0.00146316
     0.004004       317.224        291.17       317.234       29.6916      -1.04067             0       22.9648     0.0778793             0        13.868      -1.50042             0       1.68481             0             0      0.222359    0.00143897     0.0184372        104531        103103        235435    0.00263646
    0.0045045       369.829       294.281       2627.32       28.3431     -0.814771             0       23.0346     0.0889144             0       14.4771      -1.82336             0       2.45355             0             0      0.211356    0.00504405     0.0292598        104544        103102        235957    0.00924165
   0.00500501       425.823       297.424       4999.08       27.0134     -0.563444             0       23.1054      0.100434             0       15.0957      -2.13894             0       3.22971             0             0       0.19993     0.0088399     0.0399643        104557        103101        236474     0.0161964
   0.00550551       817.277        303.79       13476.4       27.5351       2.20549             0       23.2765      0.159876             0       16.6594      -1.72481             0       4.74147             0             0      0.146606     0.0315216     0.0389735        104547        103100        236469     0.0577535
   0.00600601       1208.12       310.137       21933.6       28.0663       4.96238             0       23.4461      0.218896             0       18.2154      -1.32084             0       6.24514             0             0     0.0933712     0.0541618     0.0380207        104537        103098        236458     0.0992346
   0.00650651       1548.39       314.879       28741.6       29.3865       6.72823             0       23.4961      0.243045             0       19.1445       -1.7538             0       7.08261             0             0     0.0474844     0.0733854     0.0401924        104509        103097        235864      0.134456
   0.00700701       1883.45       319.572       35461.2       30.7057       8.44962             0       23.5409      0.266626             0       20.0602      -2.19261             0       7.90587             0             0    0.00222441     0.0923138     0.0426685        104481        103095        235278      0.169136
   0.00750751       1851.66       320.703       35961.7       31.9585       7.03941             0       23.2185      0.250147             0       20.0249      -3.04306             0       7.72918             0             0    0.00111363     0.0904541     0.0665787        104477        103094        235263      0.165729
   0.00800801       1819.76        321.83       36455.1       33.2264       5.63726             0        22.888      0.234273             0       19.9992      -3.87797             0       7.55879             0             0   2.04613e-05     0.0885862     0.0904962        104473        103093        235241      0.162307
   0.00850851       1780.97       322.754       36519.6       35.4207       4.73023             0        22.066      0.255561             0       20.5658      -3.75634             0       7.77576             0             0   1.01901e-05     0.0862168      0.114862        104469        103092        234801      0.157965
   0.00900901       1742.59        323.69       36595.9       37.5902       3.82759             0       21.2357      0.276805             0       21.1316      -3.63169             0        7.9871             0             0    1.0293e-07     0.0838642      0.139054        104466        103091        234360      0.153655
   0.00950951       1726.49       325.353       37317.5       38.4068       3.16434             0       19.9528      0.295646             0        21.654      -3.34223             0       7.89124             0             0   5.10944e-08     0.0824307      0.153777        104466        103091        233838      0.151028
      0.01001       1710.59       327.037       38084.2       39.2306       2.51004             0       18.6702      0.314198             0       22.2019      -3.04447             0       7.79242             0             0   2.93003e-10      0.080997        0.1685        104466        103091        233313      0.148402
    0.0105105       1704.19       329.791       41062.6        40.406       2.29389             0       17.3966      0.318585             0       24.0002      -2.33968             0       7.54836             0             0   1.45294e-10     0.0795593      0.183272        104463        103091        232603      0.145767
     0.011011        1697.4       332.505         43977       41.5687       2.08421             0       16.1332      0.321707             0       25.8033      -1.65147             0       7.31067             0             0   8.25149e-13     0.0780998      0.198266        104461        103091        231893      0.143093
    0.0115115       1672.63       333.451       44045.9       42.1704       2.16182             0       15.3251      0.268569             0       27.8204      -1.69984             0       7.35601             0             0   4.08405e-13      0.075677      0.223151        104459        103091        231175      0.138654
     0.012012        1647.6       334.343         44018       42.7472       2.23492             0       14.5286      0.215162             0       29.8231      -1.77054             0       7.40931             0             0   1.64761e-15     0.0732416      0.248165        104457        103091        230457      0.134192
    0.0125125       1611.71       333.021       40055.6       42.3153       2.12461             0       14.2061      0.150816             0       31.2443      -2.74911             0       7.78685             0             0   1.05826e-15     0.0702964      0.278412        104456        103091        229761      0.128796
     0.013013       1576.09       331.687       36103.1       41.8668        2.0088             0       13.8912     0.0864776             0       32.6616       -3.7292             0       8.17508             0             0   7.57777e-15     0.0673599       0.30857        104455        103090        229066      0.123416
    0.0135135          1550       329.876       32520.8       40.7966       1.68625             0       13.8602     0.0223958             0       33.9373      -4.76612             0       8.96427             0             0   2.80406e-13       0.06475      0.335376        104457        103089        228407      0.118634
     0.014014       1524.28       328.013       28909.8        39.728       1.35931             0       13.8362    -0.0412254             0        35.202      -5.79922             0       9.76406             0             0    9.3229e-12     0.0621608       0.36197        104460        103087        227749       0.11389
    0.0145145       1511.67       324.322       24300.3       38.7135      0.880236             0        14.052    -0.0888606             0       36.0859       -6.6997             0       10.9324             0             0   3.22798e-10     0.0602885      0.381203        104466        103085        227113       0.11046
     0.015015       1499.09       320.607         19700       37.7011      0.403251             0       14.2751     -0.136444             0       36.9812      -7.59477             0       12.1136             0             0   7.10794e-09      0.058446      0.400131        104471        103083        226478      0.107084
    0.0155155       1487.86       316.128       15398.1       36.7586    -0.0061003             0        14.738     -0.182364             0       38.2462      -8.31449             0       13.7111             0             0   2.23144e-07     0.0575648      0.409191        104481        103081        225875      0.105469
     0.016016       1475.58        311.68         11151       35.8037     -0.415021             0        15.209     -0.227618             0        39.525      -9.01785             0        15.315             0             0   2.64123e-06     0.0567067      0.418004        104490        103078        225282      0.103897
    0.0165165        1431.8       308.184       8560.84       34.4768     -0.810892             0       15.9233     -0.252718             0       41.2266      -9.22642             0       17.1129             0             0   7.16713e-05      0.056547       0.41935        104502        103075        224985      0.103605
     0.017017        1384.7        304.71       6001.87       33.0975      -1.19197             0       16.6463     -0.276035             0       42.9467      -9.38943             0       18.9126             0             0   0.000376539     0.0562832      0.420737        104513        103071        224707      0.103121
    0.0175175       1243.47       301.841       4328.49       30.2273      -1.15287             0       17.6143     -0.248714             0       45.1968      -8.25794             0       20.7661             0             0    0.00738196      0.053064      0.423308        104525        103067        224972     0.0972232
     0.018018       1099.48       298.996       2682.84       27.3687      -1.12818             0       18.5777     -0.219969             0       47.4467      -7.09097             0       22.6221             0             0     0.0150978      0.049583      0.425478        104537        103063        225260     0.0908453
    0.0185185       881.252        296.78       1779.77       24.8195      -1.48943             0       19.4179     -0.153087             0       49.6941        -4.974             0       24.5456             0             0     0.0418377     0.0390898      0.416893        104551        103059        226192     0.0716198
     0.019019       665.824       294.597        900.22       22.3572       -1.8851             0       20.2427    -0.0872434             0       51.8915      -2.85963             0       26.4726             0             0     0.0688605     0.0286088      0.406953        104564        103054        227148     0.0524167
    0.0195195       521.238       293.221       616.034       22.0989      -3.15189             0       20.6771    -0.0476959             0       52.8238     -0.811206             0       28.4889             0             0      0.103046      0.018436      0.362718        104578        103049        228739     0.0337781
      0.02002       380.923        291.87       339.502       21.8643      -4.40863             0       21.1002    -0.0089765             0       53.6625       1.22383             0       30.5163             0             0       0.13673    0.00852889      0.317934        104592        103043        230355     0.0156265
    0.0205205       343.088       291.128       246.643        22.196      -5.42403             0        21.253    0.00986924             0        52.255       2.93748             0       32.8113             0             0      0.158388    0.00500061       0.25999        104599        103038        232599    0.00916206
     0.021021       306.541         290.4       155.981       22.4995      -6.41832             0       21.3969     0.0278163             0       50.7786       4.63429             0        35.116             0             0      0.179543    0.00159144      0.203008        104606        103033        234856    0.00291582
    0.0215215       299.343       290.003       115.459       22.1607      -6.93112             0       21.3361     0.0252655             0       47.7316       5.94707             0       37.6432             0             0      0.189245   0.000898988      0.167944        104609        103027        237422    0.00164711
     0.022022        292.39       289.613       75.8018       21.8059      -7.43564             0       21.2647     0.0210326             0       44.6653       7.23955             0       40.1757             0             0      0.198624   0.000232526      0.134016        104613        103022        239997    0.00042603
    0.0225225        290.77       289.345       54.9564       21.1053      -7.76017             0       20.9641    -0.0197484             0       41.1792        8.0911             0       42.8266             0             0      0.200991   0.000130741      0.124774        104617        103016        242774   0.000239543
     0.023023       289.211       289.082       34.5573       20.4077      -8.09001             0       20.6512    -0.0626953             0       37.7328       8.92009             0       45.4795             0             0      0.203204   3.29816e-05      0.116161        104621        103011        245560   6.04284e-05
    0.0235235       288.924       288.888       23.4127       19.7713      -8.52985             0       20.0815      -0.15056             0       35.1102       9.28119             0       48.1738             0             0      0.202221   1.86806e-05      0.120584        104623        103005        248567   3.42263e-05
     0.024024       288.649       288.698       12.5783       19.1321      -8.97381             0       19.5077     -0.240524             0       32.5674       9.63335             0       50.8701             0             0      0.201205   4.95072e-06      0.125142        104626        103000        251589   9.07063e-06
    0.0245245       288.599        288.58       7.89535        18.436       -9.4995             0       18.8532      -0.37211             0       31.6059       9.80817             0       53.6083             0             0      0.199548   2.54938e-06      0.132373        104624        102995        254918   4.67093e-06
     0.025025       288.551       288.465       3.37958       17.7378      -10.0289             0       18.2034     -0.504772             0        30.671       9.99007             0       56.3517             0             0      0.197909   2.61789e-07      0.139522        104621        102990        258259   4.79645e-07
    0.0255255       288.553       288.408       2.04097       16.9982      -10.6279             0       17.6427     -0.657896             0       30.2424       10.3064             0       59.1931             0             0      0.196629   1.35473e-07      0.145087        104614        102984        261840   2.48212e-07
     0.026026       288.554       288.353      0.757863       16.2661      -11.2373             0       17.0827     -0.811964             0       29.7875       10.6199             0       62.0344             0             0      0.195369   1.53404e-08      0.150566        104608        102979        265427   2.81064e-08
    0.0265265       288.546        288.33      0.486452       15.6703      -12.0343             0       16.5368     -0.983226             0       28.8508        10.881             0       64.8746             0             0      0.194467   7.93031e-09       0.15449        104600        102973        269119   1.45298e-08
     0.027027       288.538       288.307      0.227031       15.0823      -12.8398             0       15.9852      -1.15577             0       27.9011        11.127             0       67.7098             0             0      0.193587   8.96828e-10      0.158315        104592        102966        272812   1.64316e-09
    0.0275275        288.53       288.298      0.177649       14.6327      -13.7954             0       15.3352      -1.35083             0       26.7249        11.108             0       70.4588             0             0      0.193101   4.60668e-10      0.160427        104585        102959        276497   8.44029e-10
     0.028028       288.524        288.29      0.130578        14.185      -14.7551             0       14.6801      -1.54707             0       25.5602       11.0774             0       73.1943             0             0       0.19264    4.7638e-11      0.162434        104578        102953        280174   8.72817e-11
    0.0285285       288.536       288.285       0.12246       13.7698      -15.7852             0       13.9397      -1.76328             0       24.5902       10.8513             0       75.7023             0             0      0.192586   2.45364e-11      0.162668        104572        102946        283690   4.49553e-11
     0.029029       288.549       288.281      0.114913       13.3456       -16.807             0       13.1951      -1.98016             0       23.6487        10.623             0       78.1841             0             0      0.192549   2.69737e-12      0.162828        104567        102939        287171   4.94208e-12
    0.0295295       288.584       288.273       0.11666       12.7736      -17.6947             0       12.3834      -2.20797             0       23.1686       10.3571             0       80.2409             0             0      0.192788   1.36345e-12      0.161792        104564        102932        290064    2.4981e-12
      0.03003        288.62       288.266        0.1185       12.1862      -18.5639             0       11.5678      -2.43598             0       22.7302       10.1013             0       82.2574             0             0      0.193031   1.06442e-13      0.160735        104561        102925        292903   1.95022e-13
    0.0305305       288.666       288.261      0.121793       11.3571      -19.1443             0       10.6925      -2.66711             0        22.944       10.0023             0       83.6433             0             0      0.193347   5.41658e-14      0.159361        104561        102918        294894   9.92419e-14
     0.031031       288.713       288.256      0.124911        10.519      -19.7065             0       9.81271      -2.89743             0       23.2075       9.92023             0       84.9825             0             0      0.193658   5.06459e-15      0.158007        104560        102912        296825   9.27927e-15
    0.0315315       288.761       288.254      0.125383       9.54734      -19.9936             0       8.86711      -3.11542             0       24.2216       10.0941             0       85.6163             0             0      0.193896   3.99959e-15      0.156974        104561        102906        297829     7.328e-15
     0.032032       288.809       288.252      0.125763       8.57739      -20.2693             0        7.9191      -3.33242             0        25.268       10.2799             0       86.2089             0             0      0.194121   3.02134e-15      0.155996        104561        102901        298782   5.53565e-15
    0.0325325       288.861       288.251      0.124804       7.63268      -20.3792             0       6.93598      -3.53469             0       26.7865       10.6385             0       86.1984             0             0      0.194162    3.3117e-15      0.155817        104560        102897        298982   6.06765e-15
     0.033033       288.913       288.249      0.123857        6.6939      -20.4824             0       5.95281      -3.73572             0         28.29       10.9966             0       86.1554             0             0      0.194186   3.61154e-15      0.155712        104559        102892        299159   6.61702e-15
    0.0335335       288.961       288.249      0.123071       5.83905      -20.4908             0         4.969      -3.91899             0       29.5813       11.3489             0       85.6517             0             0      0.193967   4.04557e-15      0.156664        104555        102889        299025   7.41224e-15
     0.034034       289.007       288.249      0.122351       4.99047      -20.4933             0       3.98581      -4.10091             0         30.81       11.6836             0       85.1175             0             0      0.193727   4.49051e-15      0.157705        104551        102886        298892   8.22746e-15
    0.0345345       289.035        288.25      0.122546       4.22792      -20.4141             0        3.0111      -4.26426             0       31.1815       11.7779             0       84.1657             0             0      0.193205   5.08509e-15      0.159976        104543        102885        298779   9.31684e-15
     0.035035       289.061       288.251      0.122817        3.4723      -20.3279             0       2.03673       -4.4264             0       31.4756       11.8404             0       83.1791             0             0      0.192652   5.71425e-15      0.162378        104536        102883        298674   1.04696e-14
    0.0355355        289.08       288.253      0.124106       2.80871      -20.1486             0       1.06687      -4.57244             0       30.7413       11.4812             0       81.7304             0             0      0.191696   6.80279e-15      0.166534        104528        102882        298660    1.2464e-14
     0.036036       289.098       288.255      0.125467       2.15472      -19.9616             0     0.0969801      -4.71738             0       29.9676       11.0896             0       80.2405             0             0      0.190736   7.89363e-15      0.170707        104521        102882        298641   1.44626e-14
    0.0365365       289.108       288.257      0.127747       1.62439      -19.6738             0     -0.873294      -4.84813             0       28.6873       10.2802             0       78.2208             0             0      0.189725   9.01418e-15      0.175102        104517        102883        298558   1.65157e-14
     0.037037       289.117       288.259      0.130109       1.10615      -19.3781             0      -1.84325      -4.97706             0       27.4321       9.45867             0       76.1598             0             0      0.188746   1.00962e-14      0.179361        104514        102885        298450   1.84981e-14
    0.0375375       289.111        288.26      0.133488      0.739066       -18.983             0      -2.80916      -5.08315             0       26.4914       8.48583             0       73.5834             0             0      0.188158   1.06959e-14      0.181915        104520        102888        298009   1.95969e-14
     0.038038       289.104       288.262      0.136932      0.382033      -18.5802             0      -3.77319      -5.18638             0       25.6254       7.53369             0       70.9721             0             0      0.187584   1.12701e-14      0.184411        104526        102892        297526   2.06489e-14
    0.0385385       289.092       288.261      0.141177       0.14714      -18.0844             0      -4.71433       -5.2549             0       25.6671       6.83333             0       67.9372             0             0      0.187177   1.15335e-14      0.186184        104542        102897        296533   2.11315e-14
     0.039039        289.08       288.261      0.145486    -0.0801971      -17.5783             0      -5.65049       -5.3196             0       25.8026       6.17967             0       64.8785             0             0      0.186772   1.17791e-14      0.187944        104558        102902        295497   2.15815e-14
    0.0395395       289.067       288.258      0.150556     -0.218235      -16.9507             0      -6.52777      -5.33921             0       27.0473       6.07803             0       61.5394             0             0      0.186403   1.18148e-14      0.189548        104581        102909        293957    2.1647e-14
      0.04004       289.053       288.255      0.155555     -0.348876      -16.3098             0       -7.3959      -5.35435             0       28.3779       6.02811             0       58.1854             0             0      0.186058   1.18241e-14      0.191048        104605        102917        292381   2.16639e-14
    0.0405405       289.031       288.252      0.159732     -0.394462      -15.5146             0      -8.15887      -5.31791             0       30.6976       6.57283             0       54.6619             0             0      0.185985   1.15291e-14      0.191365        104630        102926        290399   2.11234e-14
     0.041041       289.008       288.248      0.163659     -0.430439      -14.7034             0      -8.90873      -5.27637             0        33.069       7.15275             0       51.1277             0             0      0.185945   1.11887e-14      0.191539        104656        102935        288395   2.04999e-14
    0.0415415       288.967       288.247      0.164783     -0.358855      -13.7121             0      -9.51183      -5.17778             0       36.0177       8.12663             0       47.4725             0             0      0.186272    1.0341e-14       0.19012        104678        102944        286154   1.89466e-14
     0.042042       288.924       288.245      0.165836      -0.27387      -12.7029             0      -10.0995      -5.07376             0       38.9723       9.10834             0       43.8126             0             0      0.186622   9.46958e-15      0.188599        104699        102954        283908     1.735e-14
    0.0425425       288.869       288.245       0.16612     -0.042756       -11.499             0      -10.5184      -4.91057             0       41.9906       10.1755             0       40.1014             0             0       0.18723   8.34051e-15      0.185958        104714        102964        281616   1.52814e-14
     0.043043       288.814       288.245      0.166421      0.207273      -10.2788             0      -10.9214      -4.74147             0       45.0037       11.2247             0       36.3971             0             0       0.18787   7.21028e-15      0.183176        104729        102974        279333   1.32106e-14
    0.0435435       288.759       288.244      0.166896      0.658335      -8.88688             0      -11.1554      -4.50955             0       47.9609       12.0822             0       32.7647             0             0      0.188858   6.06778e-15      0.178881        104737        102983        277145   1.11173e-14
     0.044044       288.705       288.243      0.167118       1.13219      -7.48717             0      -11.3735      -4.27224             0        50.958       12.9144             0       29.1508             0             0      0.189885   4.93815e-15      0.174415        104744        102992        274985   9.04762e-15
    0.0445445       288.663       288.239      0.164721       1.84222      -6.00705             0      -11.4272        -3.979             0       54.3683       13.4831             0       25.7286             0             0      0.191323   3.94202e-15      0.168162        104745        103001        273102   7.22251e-15
     0.045045       288.623       288.236      0.162163       2.56898      -4.53738             0      -11.4657      -3.68147             0       57.8998       14.0231             0       22.3303             0             0      0.192803   2.98318e-15       0.16173        104745        103009        271256   5.46573e-15
    0.0455455       288.607        288.23      0.157968       3.46494      -3.17329             0      -11.3499      -3.34055             0       62.6571       14.2718             0       19.1729             0             0      0.194701   2.40141e-15      0.153476        104741        103017        269785   4.39982e-15