# vtk DataFile Version 2.0
sampleSurface
ASCII
DATASET POLYDATA
POINTS 16001 float
0 0 0.0005 0 0.001 0.0005 0.001 0 0.0005 -0.001 0
0.0005 0.001 0.001 0.0005 -0.001 0.001 0.0005 0.002 0 0.0005
0 0.002 0.0005 -0.002 0 0.0005 0.002 0.001 0.0005 0.001
0.002 0.0005 -0.002 0.001 0.0005 -0.001 0.002 0.0005 0.002 0.002
0.0005 -0.002 0.002 0.0005 0.003 0 0.0005 0 0.003 0.0005
-0.003 0 0.0005 0.003 0.001 0.0005 0.001 0.003 0.0005 -0.003
0.001 0.0005 -0.001 0.003 0.0005 0.003 0.002 0.0005 0.002 0.003
0.0005 -0.003 0.002 0.0005 -0.002 0.003 0.0005 0.004 0 0.0005
0 0.004 0.0005 -0.004 0 0.0005 0.004 0.001 0.0005 0.001
0.004 0.0005 -0.004 0.001 0.0005 -0.001 0.004 0.0005 0.003 0.003
0.0005 -0.003 0.003 0.0005 0.004 0.002 0.0005 0.002 0.004 0.0005
-0.004 0.002 0.0005 -0.002 0.004 0.0005 0.004 0.003 0.0005 0.003
0.004 0.0005 -0.004 0.003 0.0005 -0.003 0.004 0.0005 0.005 0
0.0005 0 0.005 0.0005 -0.005 0 0.0005 0.005 0.001 0.0005
0.001 0.005 0.0005 -0.005 0.001 0.0005 -0.001 0.005 0.0005 0.005
0.002 0.0005 0.002 0.005 0.0005 -0.005 0.002 0.0005 -0.002 0.005
0.0005 0.004 0.004 0.0005 -0.004 0.004 0.0005 0.005 0.003 0.0005
0.003 0.005 0.0005 -0.005 0.003 0.0005 -0.003 0.005 0.0005 0.006
0 0.0005 0 0.006 0.0005 -0.006 0 0.0005 0.006 0.001
0.0005 0.001 0.006 0.0005 -0.006 0.001 0.0005 -0.001 0.006 0.0005
0.006 0.002 0.0005 0.002 0.006 0.0005 -0.006 0.002 0.0005 -0.002
0.006 0.0005 0.005 0.004 0.0005 0.004 0.005 0.0005 -0.005 0.004
0.0005 -0.004 0.005 0.0005 0.006 0.003 0.0005 0.003 0.006 0.0005
-0.006 0.003 0.0005 -0.003 0.006 0.0005 0.007 0 0.0005 0
0.007 0.0005 -0.007 0 0.0005 0.007 0.001 0.0005 0.005 0.005
0.0005 0.001 0.007 0.0005 -0.007 0.001 0.0005 -0.005 0.005 0.0005
-0.001 0.007 0.0005 0.006 0.004 0.0005 0.004 0.006 0.0005 -0.006
0.004 0.0005 -0.004 0.006 0.0005 0.007 0.002 0.0005 0.002 0.007
0.0005 -0.007 0.002 0.0005 -0.002 0.007 0.0005 0.007 0.003 0.0005
0.003 0.007 0.0005 -0.007 0.003 0.0005 -0.003 0.007 0.0005 0.006
0.005 0.0005 0.005 0.006 0.0005 -0.006 0.005 0.0005 -0.005 0.006
0.0005 0.008 0 0.0005 0 0.008 0.0005 -0.008 0 0.0005
0.008 0.001 0.0005 0.001 0.008 0.0005 -0.008 0.001 0.0005 -0.001
0.008 0.0005 0.007 0.004 0.0005 0.004 0.007 0.0005 -0.007 0.004
0.0005 -0.004 0.007 0.0005 0.008 0.002 0.0005 0.002 0.008 0.0005
-0.008 0.002 0.0005 -0.002 0.008 0.0005 0.006 0.006 0.0005 -0.006
0.006 0.0005 0.008 0.003 0.0005 0.003 0.008 0.0005 -0.008 0.003
0.0005 -0.003 0.008 0.0005 0.007 0.005 0.0005 0.005 0.007 0.0005
-0.007 0.005 0.0005 -0.005 0.007 0.0005 0.008 0.004 0.0005 0.004
0.008 0.0005 -0.008 0.004 0.0005 -0.004 0.008 0.0005 0.009 0
0.0005 0 0.009 0.0005 -0.009 0 0.0005 0.009 0.001 0.0005
0.001 0.009 0.0005 -0.009 0.001 0.0005 -0.001 0.009 0.0005 0.009
0.002 0.0005 0.002 0.009 0.0005 -0.009 0.002 0.0005 -0.002 0.009
0.0005 0.007 0.006 0.0005 0.006 0.007 0.0005 -0.007 0.006 0.0005
-0.006 0.007 0.0005 0.008 0.005 0.0005 0.005 0.008 0.0005 -0.008
0.005 0.0005 -0.005 0.008 0.0005 0.009 0.003 0.0005 0.003 0.009
0.0005 -0.009 0.003 0.0005 -0.003 0.009 0.0005 0.009 0.004 0.0005
0.004 0.009 0.0005 -0.009 0.004 0.0005 -0.004 0.009 0.0005 0.007
0.007 0.0005 -0.007 0.007 0.0005 0.008 0.006 0.0005 0.006 0.008
0.0005 -0.008 0.006 0.0005 -0.006 0.008 0.0005 0.01 0 0.0005
0 0.01 0.0005 -0.01 0 0.0005 0.01 0.001 0.0005 0.001
0.01 0.0005 -0.01 0.001 0.0005 -0.001 0.01 0.0005 0.01 0.002
0.0005 0.002 0.01 0.0005 -0.01 0.002 0.0005 -0.002 0.01 0.0005
0.009 0.005 0.0005 0.005 0.009 0.0005 -0.009 0.005 0.0005 -0.005
0.009 0.0005 0.01 0.003 0.0005 0.003 0.01 0.0005 -0.01 0.003
0.0005 -0.003 0.01 0.0005 0.008 0.007 0.0005 0.007 0.008 0.0005
-0.008 0.007 0.0005 -0.007 0.008 0.0005 0.01 0.004 0.0005 0.004
0.01 0.0005 -0.01 0.004 0.0005 -0.004 0.01 0.0005 0.009 0.006
0.0005 0.006 0.009 0.0005 -0.009 0.006 0.0005 -0.006 0.009 0.0005
0.011 0 0.0005 0 0.011 0.0005 -0.011 0 0.0005 0.011
0.001 0.0005 0.001 0.011 0.0005 -0.011 0.001 0.0005 -0.001 0.011
0.0005 0.011 0.002 0.0005 0.002 0.011 0.0005 -0.011 0.002 0.0005
-0.002 0.011 0.0005 0.01 0.005 0.0005 0.005 0.01 0.0005 -0.01
0.005 0.0005 -0.005 0.01 0.0005 0.008 0.008 0.0005 -0.008 0.008
0.0005 0.011 0.003 0.0005 0.009 0.007 0.0005 0.007 0.009 0.0005
0.003 0.011 0.0005 -0.011 0.003 0.0005 -0.009 0.007 0.0005 -0.007
0.009 0.0005 -0.003 0.011 0.0005 0.01 0.006 0.0005 0.006 0.01
0.0005 -0.01 0.006 0.0005 -0.006 0.01 0.0005 0.011 0.004 0.0005
0.004 0.011 0.0005 -0.011 0.004 0.0005 -0.004 0.011 0.0005 0.012
0 0.0005 0 0.012 0.0005 -0.012 0 0.0005 0.012 0.001
0.0005 0.009 0.008 0.0005 0.008 0.009 0.0005 0.001 0.012 0.0005
-0.012 0.001 0.0005 -0.009 0.008 0.0005 -0.008 0.009 0.0005 -0.001
0.012 0.0005 0.011 0.005 0.0005 0.005 0.011 0.0005 -0.011 0.005
0.0005 -0.005 0.011 0.0005 0.012 0.002 0.0005 0.002 0.012 0.0005
-0.012 0.002 0.0005 -0.002 0.012 0.0005 0.01 0.007 0.0005 0.007
0.01 0.0005 -0.01 0.007 0.0005 -0.007 0.01 0.0005 0.012 0.003
0.0005 0.003 0.012 0.0005 -0.012 0.003 0.0005 -0.003 0.012 0.0005
0.011 0.006 0.0005 0.006 0.011 0.0005 -0.011 0.006 0.0005 -0.006
0.011 0.0005 0.012 0.004 0.0005 0.004 0.012 0.0005 -0.012 0.004
0.0005 -0.004 0.012 0.0005 0.009 0.009 0.0005 -0.009 0.009 0.0005
0.01 0.008 0.0005 0.008 0.01 0.0005 -0.01 0.008 0.0005 -0.008
0.01 0.0005 0.013 0 0.0005 0 0.013 0.0005 -0.013 0
0.0005 0.012 0.005 0.0005 0.005 0.012 0.0005 -0.012 0.005 0.0005
-0.005 0.012 0.0005 0.013 0.001 0.0005 0.011 0.007 0.0005 0.007
0.011 0.0005 0.001 0.013 0.0005 -0.013 0.001 0.0005 -0.011 0.007
0.0005 -0.007 0.011 0.0005 -0.001 0.013 0.0005 0.013 0.002 0.0005
0.002 0.013 0.0005 -0.013 0.002 0.0005 -0.002 0.013 0.0005 0.013
0.003 0.0005 0.003 0.013 0.0005 -0.013 0.003 0.0005 -0.003 0.013
0.0005 0.012 0.006 0.0005 0.006 0.012 0.0005 -0.012 0.006 0.0005
-0.006 0.012 0.0005 0.01 0.009 0.0005 0.009 0.01 0.0005 -0.01
0.009 0.0005 -0.009 0.01 0.0005 0.013 0.004 0.0005 0.011 0.008
0.0005 0.008 0.011 0.0005 0.004 0.013 0.0005 -0.013 0.004 0.0005
-0.011 0.008 0.0005 -0.008 0.011 0.0005 -0.004 0.013 0.0005 0.012
0.007 0.0005 0.007 0.012 0.0005 -0.012 0.007 0.0005 -0.007 0.012
0.0005 0.013 0.005 0.0005 0.005 0.013 0.0005 -0.013 0.005 0.0005
-0.005 0.013 0.0005 0.014 0 0.0005 0 0.014 0.0005 -0.014
0 0.0005 0.014 0.001 0.0005 0.001 0.014 0.0005 -0.014 0.001
0.0005 -0.001 0.014 0.0005 0.014 0.002 0.0005 0.01 0.01 0.0005
0.002 0.014 0.0005 -0.014 0.002 0.0005 -0.01 0.01 0.0005 -0.002
0.014 0.0005 0.011 0.009 0.0005 0.009 0.011 0.0005 -0.011 0.009
0.0005 -0.009 0.011 0.0005 0.013 0.006 0.0005 0.006 0.013 0.0005
-0.013 0.006 0.0005 -0.006 0.013 0.0005 0.014 0.003 0.0005 0.003
0.014 0.0005 -0.014 0.003 0.0005 -0.003 0.014 0.0005 0.012 0.008
0.0005 0.008 0.012 0.0005 -0.012 0.008 0.0005 -0.008 0.012 0.0005
0.014 0.004 0.0005 0.004 0.014 0.0005 -0.014 0.004 0.0005 -0.004
0.014 0.0005 0.013 0.007 0.0005 0.007 0.013 0.0005 -0.013 0.007
0.0005 -0.007 0.013 0.0005 0.011 0.01 0.0005 0.01 0.011 0.0005
-0.011 0.01 0.0005 -0.01 0.011 0.0005 0.014 0.005 0.0005 0.005
0.014 0.0005 -0.014 0.005 0.0005 -0.005 0.014 0.0005 0.015 0
0.0005 0.012 0.009 0.0005 0.009 0.012 0.0005 0 0.015 0.0005
-0.015 0 0.0005 -0.012 0.009 0.0005 -0.009 0.012 0.0005 0.015
0.001 0.0005 0.001 0.015 0.0005 -0.015 0.001 0.0005 -0.001 0.015
0.0005 0.015 0.002 0.0005 0.002 0.015 0.0005 -0.015 0.002 0.0005
-0.002 0.015 0.0005 0.014 0.006 0.0005 0.006 0.014 0.0005 -0.014
0.006 0.0005 -0.006 0.014 0.0005 0.013 0.008 0.0005 0.008 0.013
0.0005 -0.013 0.008 0.0005 -0.008 0.013 0.0005 0.015 0.003 0.0005
0.003 0.015 0.0005 -0.015 0.003 0.0005 -0.003 0.015 0.0005 0.015
0.004 0.0005 0.004 0.015 0.0005 -0.015 0.004 0.0005 -0.004 0.015
0.0005 0.011 0.011 0.0005 -0.011 0.011 0.0005 0.012 0.01 0.0005
0.01 0.012 0.0005 -0.012 0.01 0.0005 -0.01 0.012 0.0005 0.014
0.007 0.0005 0.007 0.014 0.0005 -0.014 0.007 0.0005 -0.007 0.014
0.0005 0.015 0.005 0.0005 0.013 0.009 0.0005 0.009 0.013 0.0005
0.005 0.015 0.0005 -0.015 0.005 0.0005 -0.013 0.009 0.0005 -0.009
0.013 0.0005 -0.005 0.015 0.0005 0.016 0 0.0005 0 0.016
0.0005 -0.016 0 0.0005 0.016 0.001 0.0005 0.001 0.016 0.0005
-0.016 0.001 0.0005 -0.001 0.016 0.0005 0.016 0.002 0.0005 0.002
0.016 0.0005 -0.016 0.002 0.0005 -0.002 0.016 0.0005 0.014 0.008
0.0005 0.008 0.014 0.0005 -0.014 0.008 0.0005 -0.008 0.014 0.0005
0.015 0.006 0.0005 0.006 0.015 0.0005 -0.015 0.006 0.0005 -0.006
0.015 0.0005 0.016 0.003 0.0005 0.012 0.011 0.0005 0.011 0.012
0.0005 0.003 0.016 0.0005 -0.016 0.003 0.0005 -0.012 0.011 0.0005
-0.011 0.012 0.0005 -0.003 0.016 0.0005 0.013 0.01 0.0005 0.01
0.013 0.0005 -0.013 0.01 0.0005 -0.01 0.013 0.0005 0.016 0.004
0.0005 0.004 0.016 0.0005 -0.016 0.004 0.0005 -0.004 0.016 0.0005
0.015 0.007 0.0005 0.007 0.015 0.0005 -0.015 0.007 0.0005 -0.007
0.015 0.0005 0.014 0.009 0.0005 0.009 0.014 0.0005 -0.014 0.009
0.0005 -0.009 0.014 0.0005 0.016 0.005 0.0005 0.005 0.016 0.0005
-0.016 0.005 0.0005 -0.005 0.016 0.0005 0.012 0.012 0.0005 -0.012
0.012 0.0005 0.015 0.008 0.0005 0.008 0.015 0.0005 -0.015 0.008
0.0005 -0.008 0.015 0.0005 0.017 0 0.0005 0 0.017 0.0005
-0.017 0 0.0005 0.013 0.011 0.0005 0.011 0.013 0.0005 -0.013
0.011 0.0005 -0.011 0.013 0.0005 0.017 0.001 0.0005 0.001 0.017
0.0005 -0.017 0.001 0.0005 -0.001 0.017 0.0005 0.016 0.006 0.0005
0.006 0.016 0.0005 -0.016 0.006 0.0005 -0.006 0.016 0.0005 0.017
0.002 0.0005 0.002 0.017 0.0005 -0.017 0.002 0.0005 -0.002 0.017
0.0005 0.014 0.01 0.0005 0.01 0.014 0.0005 -0.014 0.01 0.0005
-0.01 0.014 0.0005 0.017 0.003 0.0005 0.003 0.017 0.0005 -0.017
0.003 0.0005 -0.003 0.017 0.0005 0.016 0.007 0.0005 0.007 0.016
0.0005 -0.016 0.007 0.0005 -0.007 0.016 0.0005 0.017 0.004 0.0005
0.004 0.017 0.0005 -0.017 0.004 0.0005 -0.004 0.017 0.0005 0.015
0.009 0.0005 0.009 0.015 0.0005 -0.015 0.009 0.0005 -0.009 0.015
0.0005 0.013 0.012 0.0005 0.012 0.013 0.0005 -0.012 0.013 0.0005
-0.013 0.012 0.0005 0.017 0.005 0.0005 0.005 0.017 0.0005 -0.017
0.005 0.0005 -0.005 0.017 0.0005 0.014 0.011 0.0005 0.011 0.014
0.0005 -0.014 0.011 0.0005 -0.011 0.014 0.0005 0.016 0.008 0.0005
0.008 0.016 0.0005 -0.016 0.008 0.0005 -0.008 0.016 0.0005 0.018
[...]
POINT_DATA 16001
FIELD attributes 17
p 1 16001 float
101245 101249 101299 101189 101303 101192 101348 101259 101131 101351 101314
101134 101202 101361 101142 101392 101273 101073 101395 101327 101075
101214 101404 101373 101082 101153 101431 101289 101016 101434 101341
101017 101229 101414 101090 101442 101385 101021 101165 101451 101424
101026 101100 101469 101305 100959 101471 101357 100959 101245 101478
101399 100960 101179 101461 101033 101487 101436 100962 101111 101507
101327 100902 101509 101377 100902 101266 101516 101415 100900 101197
101498 101474 100966 101041 101525 101450 100899 101125 101544 101355
100845 101546 101512 101406 100844 100972 101291 101537 101490 100901
101052 101552 101441 100840 101219 101561 101473 100838 101143 101552
101530 100905 100981 101580 101399 100785 101581 101448 100784 101326
101573 101516 100838 101067 101587 101470 100781 101247 101571 100913
101595 101494 100779 101166 101588 101556 100842 100993 101606 101538
100779 101085 101611 101446 100724 101613 101496 100723 101365 101617
101507 100722 101276 101608 101594 100848 100923 101620 101579 100782
101008 101625 101521 100721 101189 101635 101570 100722 101104 101627
100856 101636 101616 100787 100935 101641 101547 100663 101642 101585
100663 101416 101645 101525 100664 101307 101649 101604 100725 101023
101652 101508 100665 101210 101645 101646 100793 100864 101661 101563
100666 101119 101667 101628 100729 100946 101666 101439 100605 101667
101561 100606 101451 101670 101497 100607 101328 101672 101613 100669
101035 101663 100798 101675 101675 101650 101444 100609 100732 100872
101222 101684 101637 100672 100955 101682 101522 100611 101127 101686
101659 100552 101687 101685 101669 101618 100552 100735 100803 102095
101689 101617 100613 101040 101690 101602 100554 102313 101696 101655
100674 100878 101694 101507 100555 102480 101692 101684 100615 100958
101697 101563 100557 102639 101687 100737 101698 101679 100675 100806
101701 101958 100502 101701 101662 100559 102785 101703 101694 101713
101878 100503 100616 100880 102172 101706 101818 100504 102340 101710
101705 100505 102497 101700 101736 100560 102930 101696 101701 100675
100738 101713 101692 101742 101710 100506 100616 100807 102646 101693
101781 100561 103067 101715 101758 100507 102790 101713 102102 100456
101714 102015 100456 102251 101719 101714 101948 100456 100675 102373
101690 101768 100616 100739 101712 101810 100508 102932 101724 101867
100457 102515 101677 101816 100561 103200 101728 101851 100458 102654
101711 101851 100509 103068 101701 101772 100616 100675 101730 101852
100459 102796 101725 101667 101831 102144 100411 100561 103326 101727
102059 100411 102277 101732 102007 100411 102394 101730 101871 100460
102934 101698 101871 100509 103199 101738 101948 100412 102528 101743
101925 100413 102663 101731 100615 101672 101823 100560 103446 101727
101884 100461 103067 101745 101685 101872 101911 100414 100509 103325
102800 101739 102198 100368 101741 102121 100368 102313 101745 102065
100369 102420 101724 101889 100462 103196 101748 101905 100416 102935
101750 101695 101774 102010 100370 100560 103560 102545 101692 101858
100509 103445 101756 101983 100372 102671 101750 101904 100417 103065
101727 101891 100463 103320 101760 101962 100373 102804 101747 103668
101756 101909 100419 103191 101756 102119 100327 101722 101820 100509
103560 101757 102079 100328 102324 101767 101955 100375 102935 101759
102062 100329 102429 101737 101885 100463 103442 101763 102040 100331
102549 101781 101948 100377 103063 101768 102026 100333 102674 101766
101906 100420 103315 101770 101804 103669 103770 101775 102005 100335
102805 101759 101863 100463 103559 101790 101941 100380 103187 101772
102037 100292 101773 101780 101906 102046 100293 100421 102141 103437
101786 101992 100338 102935 101775 102058 100294 102180 101778 102075
100296 102211 101801 101932 100382 103311 101815 103771 101798 101978
100340 103062 101784 102079 100298 102244 101800 101855 103864 103671
101805 101902 100421 103558 101792 102063 100301 102273 101814 101961
100343 103186 101820 101933 100383 103434 101802 102044 100303 102301
101786 102105 100262 101787 102086 100263 102143 101789 101838 101860
102084 100264 102179 103866 103775 101834 101905 103950 103672 101793
101833 101945 102095 100266 100346 102213 103309 101812 102019 100306
102326 101840 101937 100383 103556 101797 102095 100268 102245 101804
102082 100271 102274 101827 101988 100309 102350 101853 101947 100348
103433 101871 103870 101859 101906 103952 103779 101813 102063 100273
102301 101856 101947 104030 103673 101799 102125 100239 101800 102107
100240 102158 101803 102102 100240 102188 101850 101961 100312 102373
101807 102100 100242 102220 101821 101870 101960 102041 100276 100348
102327 103556 101812 102096 100244 102250 101879 101906 103957 103876
101868 101964 100314 102395 101833 101871 101950 102014 100278 102350
104032 103782 101818 102082 100245 102278 101876 101977 104103 103673
101822 102067 100247 102304 101809 102144 100222 101854 101993 100281
102373 101810 102127 100222 102170 101883 101981 100314 102416 101813
102118 100223 102197 101822 102053 100249 102329 101901 103963 101817
102112 100224 102226 101879 101941 104036 103880 101821 102104 100224
102255 101877 101982 104105 103783 101871 101996 100282 102395 101833
102041 100251 102351 101822 102090 100226 102282 101885 102000 102436
104171 101821 102076 100226 102307 101847 101893 101931 102034 100252
102373 104041 103968 101881 102006 100282 102416 101817 102156 100209
101818 102139 100209 102180 101878 101976 104108 103881 101820 102128
100209 102205 101821 102065 100227 102331 101824 101881 102003 102119
100210 102454 102233 104172 101825 102108 100210 102260 101858 102034
100253 102394 101824 101883 102016 102061 100228 102436 102353 104234
101821 102093 100210 102286 101917 104045 101885 101963 104112 103969
101818 101881 102000 102080 100210 102470 102311 104174 101871 102035
100253 102414 101826 102062 100228 102373 101824 102163 100199 101825
101881 102015 102146 100199 102454 102188 104234 101827 101818 102072
102136 100199 100210 102333 102213 101829 102126 100200 102240 101830
102064 100229 102392 101877 102036 102433 104290 101831 102112 100200
102266 101896 101940 104116 104047 101816 102075 100210 102354 101880
101984 102484 104177 101830 102095 100200 102290 101882 102011 102470
104236 101845 102062 100228 102411 101824 101810 102082 102080 100199
100209 102373 102314 101882 102033 102452 104290 101834 102171 100191
101834 102156 100192 102193 101818 102073 100198 102335 101915 104117
101834 101887 101961 102148 100192 102496 102217 104180 101810 102089
100209 102391 101834 101866 102059 102135 100192 102430 102243 104338
101882 101997 102484 104237 101834 102116 100192 102269 101811 102080
100196 102355 101888 102028 102468 104291 101832 102091 100191 102293
101828 102089 100207 102408 101805 102095 100195 102372 101882 102053
102448 104339 101828 102070 100190 102315 101906 101945 102507 104180
101888 101983 102497 104239 101819 101893 102017 102063 100189 102483
102336 104292 101843 102149 100188 101843 102150 100188 102202 101857
102086 102426 104378 101806 102109 100194 102389 101842 102150 100188
102224 101841 102141 100188 102247 101896 102048 102466 104339 101810
102075 100187 102355 101840 102119 100188 102271 101935 102517 101827
101905 101973 102115 100193 102508 102406 104239 101839 102088 100188
102294 101882 102080 102445 104378 101904 102006 102496 104292 101809
102100 100186 102372 101838 102060 100186 102316 101907 102040 102482
104339 101858 102112 102423 104408 101829 102052 100185 102337 101850
102139 101817 102126 100185 102388 101850 102142 101850 101904 102073
102145 102463 104378 101849 101931 101962 102138 102518 102527 101919
101996 102508 104292 101822 102068 100183 102355 101849 102120 101841
101919 102028 102142 100183 102496 102404 104339 101887 102104 102441
104408 101848 102093 101826 102103 100183 102372 101920 102064 102480
104377 101846 102069 101870 102143 102421 104428 101953 102529 101932
101982 102538 102518 101837 101912 102096 102061 102460 104407 101838
102140 100181 102387 101856 102155 101857 102153 101930 102015 102508
104338 101858 102150 101859 102141 101835 101929 102052 102077 102495
104377 101861 102127 101896 102134 102439 104428 101863 102161 100179
102403 101862 101928 102087 102107 102478 104406 101845 102111 101942
101968 102539 102529 101863 102091 101933 101999 102548 102519 101887
102163 102420 104436 101920 102122 102458 104427 101931 102035 102509
104376 101859 102145 101863 102087 101862 102160 101938 102072 102495
104405 101863 102157 101866 102152 101864 102100 101869 102145 101907
102153 102438 104436 101881 102166 101872 101950 102133 102540 101939
102108 102477 104425 101931 101980 102550 102530 101927 102015 102558
102521 101877 102120 101872 102124 101940 102052 102509 104404 101899
102169 101881 102110 101929 102139 102457 104435 101884 102151 101950
102089 102495 104424 101889 102108 101868 101933 101958 102169 102550
102541 101869 102166 101915 101922 101991 102160 102560 102531 101870
102160 101895 102119 101899 102169 101872 101952 102121 102151 102476
104433 101930 102027 102566 102522 101874 102140 101897 101945 102065
102137 102510 104422 101877 102129 101931 102146 101912 102174 101879
102122 101965 102099 102494 104431 101936 102551 101918 101965 102560
102542 101906 102157 101919 101999 102568 102533 101886 102122 101922
102168 101873 101930 102036 102169 102573 102523 101945 102128 101873
102166 101874 102161 101894 101916 102170 102130 101876 102152 101954
102073 102509 104430 101878 102142 101904 102143 101881 101930 102154
102132 101916 101940 102561 102552 101922 102173 101909 101970 102568
102543 101958 102106 101885 102126 101916 102004 102575 102534 101916
102158 101894 102126 101932 102043 102576 102522 101924 102167 101937
102134 101876 102167 101876 102165 101923 102167 101906 102133 101876
101951 102078 102160 101916 102561 101878 101900 101942 102152 102569
102553 101900 101972 102575 102544 101879 102142 101926 102154 101916
102143 101923 101940 102110 102170 101882 102133 101911 102009 102578
102533 101885 102128 101925 101927 102046 102153 101925 102135 101894
101922 102164 102127 101894 101914 102569 102562 101885 101941 102575
102554 101932 102082 101927 102160 101879 102157 101879 101905 102131
102155 101891 101973 102578 102543 101879 102151 101880 102144 101902
102011 101919 102151 101881 102135 101918 102112 101916 102138 101923
102161 101882 102128 101913 102049 101887 102570 101885 101873 101909
102123 102576 102563 101924 102146 101914 101871 101938 102132 102579
102553 101918 102154 101887 102122 101910 102084 101877 101972 101925
102150 101896 102125 101884 102148 101890 102011 101884 102146 101883
102143 101915 102141 101908 102110 101881 102137 101906 101920 102149
102129 101879 101860 101876 102129 102577 102570 101899 102049 101854
101901 102579 102561 101878 102123 101854 101932 101911 102134 101912
102124 101879 102118 101865 101969 101916 102142 101902 102081 101881
102116 101914 102137 101880 102009 101843 102577 101886 102117 101835
101862 102580 102569 101908 102103 101890 102136 101890 101914 102130
102135 101834 101889 101888 102132 101886 101897 102045 102127 101915
102135 101891 101838 101924 102120 101884 102120 101882 102114 101856
101964 101912 102114 101904 102074 101896 102123 101881 102110 101916
102128 101810 101822 102581 102575 101879 102003 101808 101844 101881
102107 101904 102125 101812 101875 101908 102094 101918 102117 101880
102107 101897 102037 101897 101826 101915 102129 101897 102128 101896
102125 101911 102123 101896 102120 101880 102109 101895 101850 101957
102114 101918 102103 101903 102065 101894 101781 102108 102579 101776
101797 101887 102113 101918 101782 101824 102117 101879 101996 101893
102104 101796 101861 101889 102100 101898 102115 101916 102084 101819
101905 101896 102029 101925 102107 101883 102100 101903 102124 101904
102123 101904 101852 101950 102120 101909 102114 101741 101748 101904
102115 101745 101770 101882 102102 101904 102109 101914 101762 101805
102057 101928 102095 101904 102103 101882 101990 101787 101849 101889
101921 102109 102106 101902 102098 101820 101897 101900 102094 101931
102077 101901 102109 101912 102024 101701 101931 102101 101704 101715
101894 102094 101722 101745 101860 101945 101910 102124 101914 102110
101910 102123 101751 101790 101911 102119 101892 102097 101913 102114
101937 102052 101938 102090 101786 101841 101914 102107 101903 101987
101914 102100 101926 102106 101900 102102 101829 101894 101913 102095
101659 101662 101676 101685 101946 102074 101940 102022 101912 102107
101708 101727 101911 102092 101938 102100 101880 101944 101749 101782
101908 102092 101925 102109 101917 102126 101918 101794 101840 102125
101957 102051 101919 102121 101909 102096 101948 101932 101989 102090
101921 102114 101616 101922 101628 101627 102107 101937 102107 101847
101896 101661 101663 101918 102102 101923 102101 101706 101718 101922
101967 102025 102095 101959 102075 101911 101949 101928 102108 101756
101782 101948 102102 101922 102092 101810 101845 101923 102093 101939
102111 101581 101576 101975 102055 101964 101611 101602 101995 101960
102094 101925 102132 101925 102130 101929 102098 101927 101659 101652
102125 101929 102119 101876 101903 101929 101714 101719 102111 101949
102111 101938 102105 101929 102104 101989 102031 101973 102080 101772
101789 101947 101957 101931 102099 101959 102107 101946 102111 101537
101933 101560 101547 102097 101836 101856 101608 101589 101989 102061
101937 102098 101989 101667 101654 102003 101953 102116 101971 102100
101912 101915 101730 101729 101933 102139 101933 102137 101944 102103
101934 102132 101935 102125 101961 102117 101936 102118 101795 101804
102006 102040 101953 102110 101983 102087 101938 101972 101514 101503
101968 102111 101556 101531 101940 102106 101618 101591 101970 101867
101870 102114 101959 102118 101941 101686 101667 102104 102009 102013
101996 102070 101947 102105 101965 102123 101754 101747 101938 101929
101981 102107 101955 102110 101940 102148 101941 101477 102146 101508
101485 101823 101822 101941 102141 101568 101534 101942 101972 102125
102134 102014 102049 101989 101980 101944 102127 101992 101639 101608
102096 101962 102118 101945 102120 101896 101888 101713 101690 101980
102123 101945 102116 101968 102125 102021 102025 101948 102114 101783
101771 102002 102079 101960 101944 101470 101457 101972 102131 101521
101488 101956 102116 101990 102117 101593 101554 101855 101844 101962
102120 101947 102157 101947 101670 101636 102155 102014 102060 101947
102150 102005 101995 101979 102133 101947 102144 101999 102105 101928
101906 101947 102137 101969 101745 101720 102127 101946 102131 101986
102132 101451 101948 102127 101817 101798 101485 101460 101973 102134
102019 102037 101550 101511 101982 101961 102006 102090 101952 102126
101628 101587 101886 101867 101995 102126 101977 102140 101959 102127
101706 101671 102008 102010 102013 102072 101965 102132 101953 102167
101953 102165 101982 102142 101780 101753 101958 101927 101954 102160
102003 102116 101955 102154 101467 101454 101970 102138 101956 102148
101518 101485 101849 101827 101592 101550 101957 102142 101989 102141
102016 102051 101958 102139 101991 101671 101630 101980 101975 102144
102008 102101 101960 101923 101891 102138 101746 101712 101996 102136
101978 102148 101964 102139 102007 101816 101789 102027 101473 102013
101504 101482 102084 101978 101948 101967 102143 101566 101529 101983
102151 101959 102176 101959 102174 102003 102126 101960 102170 101641
101599 101961 101886 101857 102164 101970 102148 101962 102158 101717
101677 101988 102150 101962 102153 102015 102065 101995 101999 101974
102153 102010 102113 101962 101787 101754 102150 101956 101917 101963
101511 101501 102149 101995 101556 101528 102145 101977 102156 101856
101825 101622 101583 101965 102150 102010 102043 101991 101971 102014
102096 101694 101652 101966 102153 101982 102158 102002 101925 101887
102135 101966 101763 101726 102183 101966 102182 101967 102178 101967
102173 101967 102157 101966 102168 102004 102019 102017 102078 101987
101830 101796 102156 101539 101965 101981 101943 102163 101565 101546
102009 102122 101616 101584 101970 102160 101963 102160 101681 101640
101900 101859 101964 101993 102151 102159 101975 101746 101706 102162
102016 102057 102003 101993 102014 102107 101965 102160 101959 101917
101811 101773 101980 102001 102142 102162 101964 102161 101591 101582
101973 102189 101973 101627 101602 102188 101972 101876 101835 102185
102015 102036 101971 101964 102163 102180 102018 101679 101642 102089
102003 101969 101970 101985 102160 102175 101738 101697 102008 102129
101969 102171 101968 102165 101937 101893 101966 102168 101797 101757
101991 102154 102020 102070 101966 102166 102017 102014 101973 102166
102014 102113 101858 101816 101992 101946 101630 101965 102166 101651
101634 101690 101658 101999 102144 101978 102164 101739 101699 101962
102167 101920 101872 102023 102050 101978 102192 102018 101791 101749
102096 101978 102019 101993 102192 101976 102190 101961 102168 101975
102186 101983 102160 101973 102007 102130 102182 101971 101925 101846
101803 101972 102177 101966 102168 101971 102174 101685 101676 102027
102031 102022 102078 101711 101686 101989 101905 101856 102153 101749
101712 102018 101972 101969 102172 101972 102014 102115 102167 101793
101750 101966 102171 101957 101907 101998 102142 101977 102163 101841
101796 101962 102027 102060 102170 102033 102012 102018 102098 101984
102194 101984 101894 101844 102194 102007 101954 101983 102193 101962
102170 101983 102157 101724 101982 102190 102006 101740 101722 102128
101981 101767 101735 102186 101980 101947 101892 102182 101802 101761
101966 102169 102034 102043 102024 102081 101979 102035 101994 102178
101990 102149 101842 101797 102014 102113 101978 101973 102166 102175
101993 101939 101889 101837 101973 102173 101999 102137 102030 102065
101978 102042 102027 102161 101772 101762 101936 101882 101968 101791
101765 102172 102020 102097 102029 101979 101817 101779 101989 102195
101989 102195 101967 102171 101985 102008 101849 101804 102123 102153
101989 102195 101989 101983 101926 102193 101988 102189 102036 102050
101888 101837 102045 102012 101970 102027 102082 102169 101988 102184
101993 102144 101986 102180 102016 102109 102020 101966 101930 101875
101976 102165 101984 101803 102177 101816 101798 101836 101803 102042
102037 101981 102001 101972 101916 102133 102175 102034 102067 101861
101819 101981 102158 102042 102000 102024 102095 101892 101842 101975
102174 102010 101956 102010 102120 101988 101928 101874 102150 101995
102195 101974 102171 101995 102196 101995 102196 102040 102054 101995
102194 102047 102026 102031 102081 101995 102190 101841 101832 101977
101965 101911 102168 102035 101990 101856 101830 101993 102185 101996
102140 102019 101876 101838 102107 101992 102181 101900 101853 101979
102163 101999 101948 101990 102178 102044 102044 102039 102069 102006
102130 102047 101930 101877 102018 101989 102176 101984 102027 102094
102156 102025 101982 101962 101908 101985 102174 101865 102015 102120
101877 101859 101991 102148 102044 101892 101860 102058 101983 102171
102002 102047 102037 102003 102003 101993 101943 102036 102083 102004
101912 101869 102043 102011 102004 101984 102167 101937 101885 102004
102000 102139 102024 102108 102018 101976 102003 101965 101910 101985
102162 102048 102051 102001 102044 102049 102033 102072 102010 102130
101992 101941 102000 102033 102036 101897 101889 102005 102097 101989
101910 101885 102155 101926 101888 101997 101947 101898 102015 101972
102019 102120 102051 102047 102049 102064 101996 102147 101994 102047
102029 102010 102043 102086 102010 101971 101916 102010 102011 102012
102030 102001 101993 101996 101942 102005 102027 102109 102138 102012
101918 102053 102058 102010 101928 101911 102053 102045 101993 102051