# PROC_ID	PARCEL_ID	CellI	X	Y	Z	p	Ux	Uy	Uz	T	C3H8	CO2	H2O	N2	O2
2	68	9	0.00907717	0	0.0005	103111	23.8432	0.223409	0	288.34	1.49119e-10	9.95672e-22	5.43434e-22	0.77	0.23
2	69	9	0.00909278	0.00077475	0.0005	103111	23.8432	0.223409	0	288.34	1.49119e-10	9.95672e-22	5.43434e-22	0.77	0.23
2	70	49	0.00911393	0.00153985	0.0005	103108	23.9139	0.0562644	0	288.339	4.66365e-09	6.54716e-21	3.57341e-21	0.77	0.23
2	71	89	0.0091089	0.00232799	0.0005	103106	23.7954	0.551607	0	288.338	1.09461e-07	3.68749e-20	2.01262e-20	0.77	0.23
2	72	129	0.00918831	0.00311816	0.0005	103099	24.0851	0.521335	0	288.339	2.15134e-06	1.64582e-19	8.98283e-20	0.769998	0.23
2	73	129	0.00921508	0.00391043	0.0005	103099	24.0851	0.521335	0	288.339	2.15134e-06	1.64582e-19	8.98283e-20	0.769998	0.23
2	74	169	0.00928872	0.00473969	0.0005	103090	23.7477	1.1219	0	288.336	4.29086e-05	6.53218e-19	3.56524e-19	0.769967	0.22999
2	75	209	0.00947534	0.00561539	0.0005	103068	24.5985	1.52254	0	288.346	0.000744053	3.30225e-18	1.80235e-18	0.769427	0.229829
2	76	249	0.00953571	0.00642464	0.0005	103048	23.5748	1.77105	0	288.436	0.00480278	9.80162e-18	5.34968e-18	0.766302	0.228895
2	77	289	0.00989144	0.00764363	0.0005	103009	24.9174	4.23258	0	288.807	0.0186414	1.08896e-16	5.94349e-17	0.755646	0.225712
2	78	330	0.0101164	0.00831949	0.0005	102974	23.5315	4.44525	0	295.976	0.0556137	1.75938e-14	9.60263e-15	0.727177	0.217209
2	79	369	0.00952851	0.00997233	0.0005	102931	18.4451	6.15526	0	359.4	0.0921345	2.14905e-13	1.17294e-13	0.699056	0.208809
2	80	449	0.00970304	0.011829	0.0005	102877	16.1068	8.04584	0	398.73	0.128487	8.53357e-12	4.65759e-12	0.671065	0.200448
2	81	368	0.00825587	0.00935861	0.0005	102930	21.3148	5.26609	0	349.251	0.167615	6.06414e-14	3.30978e-14	0.640937	0.191449
2	82	2273	-0.0239966	0.011	0.0005	104646	22.9871	-0.149691	0	288.371	1.85464e-28	4.24519e-38	2.31701e-38	0.77	0.23
2	83	2298	-0.0239966	0.018	0.0005	102043	22.806	0.122784	0	287.95	1.55836e-29	3.00215e-39	1.63856e-39	0.77	0.23
2	84	721	0.00179155	0.0186815	0.0005	102566	16.8832	0.484376	0	288.255	0.126406	2.19098e-17	1.19583e-17	0.672667	0.200927
2	85	728	0.00825527	0.0182604	0.0005	102713	21.1681	-0.633434	0	289.83	0.166297	8.39096e-16	4.57975e-16	0.641951	0.191752
2	86	769	0.00946465	0.0191684	0.0005	102692	22.2606	2.06025	0	288.391	0.0617533	3.74775e-16	2.04551e-16	0.72245	0.215797
2	87	769	0.00976193	0.0197909	0.0005	102692	22.2606	2.06025	0	288.391	0.0617533	3.74775e-16	2.04551e-16	0.72245	0.215797
2	88	809	0.00972574	0.0201332	0.0005	102677	22.1176	-0.225621	0	288.166	0.00718251	1.96356e-17	1.0717e-17	0.764469	0.228348
2	89	809	0.00985506	0.0206154	0.0005	102677	22.1176	-0.225621	0	288.166	0.00718251	1.96356e-17	1.0717e-17	0.764469	0.228348
2	90	850	0.0100011	0.021213	0.0005	102671	22.6339	-0.351854	0	288.18	0.000724615	6.0876e-18	3.32259e-18	0.769442	0.229833
2	91	849	0.00992571	0.0217223	0.0005	102659	22.3313	0.284798	0	288.19	0.000367309	3.13821e-18	1.71282e-18	0.769717	0.229916
2	92	889	0.00973028	0.0221732	0.0005	102659	21.2034	-0.484483	0	288.2	0.000439281	1.60088e-17	8.73755e-18	0.769662	0.229899
2	93	889	0.00959615	0.022685	0.0005	102659	21.2034	-0.484483	0	288.2	0.000439281	1.60088e-17	8.73755e-18	0.769662	0.229899
2	94	929	0.00926068	0.0232906	0.0005	102642	20.0546	-0.0569873	0	288.229	0.00207151	7.08771e-17	3.86844e-17	0.768405	0.229524
2	95	928	0.00823138	0.0239921	0.0005	102622	20.4553	0.64429	0	288.233	0.0015338	5.29903e-17	2.89219e-17	0.768819	0.229647
2	96	961	0.0017253	0.0242308	0.0005	102465	18.6784	-1.50899	0	288.189	0.00412081	1.2763e-16	6.966e-17	0.766827	0.229052
2	97	2448	-0.0239966	0.025	0.0005	102043	22.8223	-0.134528	0	287.95	2.1907e-30	3.85488e-40	2.10398e-40	0.77	0.23
2	106	3	0.0031572	0	0.0005	103401	23.8007	0.0548256	0	288.522	2.49087e-11	1.75001e-22	9.55148e-23	0.77	0.23
2	107	3	0.00315907	0.000734398	0.0005	103401	23.8007	0.0548256	0	288.522	2.49087e-11	1.75001e-22	9.55148e-23	0.77	0.23
2	108	43	0.00315967	0.00148369	0.0005	103394	23.7727	-0.171756	0	288.519	1.54402e-09	1.43468e-21	7.83042e-22	0.77	0.23
2	109	83	0.00314712	0.00220722	0.0005	103383	23.7004	-0.095452	0	288.515	7.60207e-08	1.00161e-20	5.46674e-21	0.77	0.23
2	110	83	0.0031508	0.00295111	0.0005	103383	23.7004	-0.095452	0	288.515	7.60207e-08	1.00161e-20	5.46674e-21	0.77	0.23
2	111	123	0.00313191	0.00367216	0.0005	103363	23.5251	-0.471412	0	288.507	3.18872e-06	6.67261e-20	3.64188e-20	0.769998	0.229999
2	112	163	0.00309706	0.00439345	0.0005	103348	23.261	-0.544811	0	288.498	9.6447e-05	4.1502e-19	2.26516e-19	0.769926	0.229978
2	113	203	0.00307589	0.00511398	0.0005	103325	22.4545	-1.44292	0	288.485	0.0018319	2.21856e-18	1.21088e-18	0.768589	0.229579
2	114	202	0.00298671	0.00582425	0.0005	103358	22.5099	-0.00207869	0	288.507	0.000136942	6.61285e-19	3.60927e-19	0.769895	0.229969
2	115	242	0.00289264	0.00658852	0.0005	103351	21.3367	1.10629	0	288.498	0.00204281	2.67325e-18	1.45905e-18	0.768427	0.22953
2	116	282	0.00275714	0.00734158	0.0005	103303	19.5044	1.21073	0	288.425	0.0181209	8.73398e-18	4.76697e-18	0.756047	0.225832
2	117	322	0.00251952	0.00836839	0.0005	103293	17.8409	4.79181	0	288.229	0.0707412	1.79299e-17	9.78606e-18	0.715529	0.21373
2	118	362	0.00229505	0.00925833	0.0005	103185	16.246	4.28345	0	288.082	0.179481	2.73361e-17	1.49199e-17	0.631799	0.188719
2	119	400	0.000891921	0.0100406	0.0005	103032	26.6505	10.2757	0	288.332	0.0251442	1.12058e-17	6.11609e-18	0.750639	0.224217
2	120	2273	-0.0239965	0.011	0.0005	104646	22.9871	-0.149691	0	288.371	1.85464e-28	4.24519e-38	2.31701e-38	0.77	0.23
2	121	2298	-0.0239966	0.018	0.0005	102043	22.806	0.122784	0	287.95	1.55836e-29	3.00215e-39	1.63856e-39	0.77	0.23
2	122	2277	-0.00278862	0.0186252	0.0005	102410	18.8181	0.356567	0	288.18	2.85441e-05	1.65271e-19	9.02045e-20	0.769978	0.229993
2	123	763	0.00340993	0.0190977	0.0005	102566	23.6726	0.814207	0	288.225	0.0202776	1.02535e-17	5.59635e-18	0.754386	0.225336
2	124	764	0.00428515	0.0195002	0.0005	102593	23.8977	-0.232295	0	288.236	0.0178359	1.1014e-17	6.01142e-18	0.756266	0.225898
2	125	764	0.00450408	0.0199448	0.0005	102593	23.8977	-0.232295	0	288.236	0.0178359	1.1014e-17	6.01142e-18	0.756266	0.225898
2	126	804	0.00448085	0.0204216	0.0005	102579	23.7029	0.150087	0	288.194	0.00091099	1.83536e-18	1.00173e-18	0.769299	0.22979
2	127	804	0.00453523	0.0209037	0.0005	102579	23.7029	0.150087	0	288.194	0.00091099	1.83536e-18	1.00173e-18	0.769299	0.22979
2	128	844	0.00458642	0.02139	0.0005	102549	24.2182	0.474912	0	288.176	2.45316e-05	2.99865e-19	1.63665e-19	0.769981	0.229994
2	129	844	0.00451677	0.021867	0.0005	102549	24.2182	0.474912	0	288.176	2.45316e-05	2.99865e-19	1.63665e-19	0.769981	0.229994
2	130	884	0.00441189	0.0223389	0.0005	102542	23.4883	0.722263	0	288.18	6.16876e-05	2.38939e-18	1.30412e-18	0.769953	0.229986
2	131	884	0.00438463	0.0228404	0.0005	102542	23.4883	0.722263	0	288.18	6.16876e-05	2.38939e-18	1.30412e-18	0.769953	0.229986
2	132	924	0.00416727	0.0233414	0.0005	102504	23.9893	1.41264	0	288.189	0.000803657	2.65701e-17	1.45019e-17	0.769381	0.229815
2	133	923	0.0033037	0.0237789	0.0005	102480	24.2912	0.668066	0	288.175	0.000798704	2.61334e-17	1.42635e-17	0.769385	0.229816
2	134	2427	-0.00285727	0.0243664	0.0005	102417	18.7795	-0.28609	0	288.185	9.78351e-07	6.07362e-20	3.31496e-20	0.769999	0.23
2	135	2448	-0.0239966	0.025	0.0005	102043	22.8223	-0.134528	0	287.95	2.1907e-30	3.85488e-40	2.10398e-40	0.77	0.23
2	144	2002	-0.00275558	0	0.0005	103711	24.0087	0.0398365	0	288.583	4.02186e-18	4.73187e-28	2.58263e-28	0.77	0.23
2	145	2002	-0.00275681	0.000755793	0.0005	103711	24.0087	0.0398365	0	288.583	4.02186e-18	4.73187e-28	2.58263e-28	0.77	0.23
2	146	2027	-0.00275776	0.00153753	0.0005	103706	24.049	0.139624	0	288.582	1.53037e-16	2.32939e-26	1.27137e-26	0.77	0.23
2	147	2052	-0.0027646	0.00228264	0.0005	103699	24.0166	0.208279	0	288.58	3.39997e-15	7.69052e-25	4.19746e-25	0.77	0.23
2	148	2077	-0.00276168	0.00306461	0.0005	103689	24.1562	0.355216	0	288.573	8.36789e-14	1.08961e-23	5.94705e-24	0.77	0.23
2	149	2077	-0.00276736	0.00382792	0.0005	103689	24.1562	0.355216	0	288.573	8.36789e-14	1.08961e-23	5.94705e-24	0.77	0.23
2	150	2102	-0.00277779	0.00458377	0.0005	103678	24.0982	0.390111	0	288.572	2.08871e-12	6.71457e-23	3.66479e-23	0.77	0.23
2	151	2127	-0.00276887	0.00537934	0.0005	103662	24.4396	0.673496	0	288.56	4.21561e-11	3.27432e-22	1.78711e-22	0.77	0.23
2	152	2152	-0.00278606	0.00612735	0.0005	103640	24.3943	0.585126	0	288.554	9.51848e-10	1.6733e-21	9.1328e-22	0.77	0.23
2	153	2152	-0.00277484	0.00692191	0.0005	103640	24.3943	0.585126	0	288.554	9.51848e-10	1.6733e-21	9.1328e-22	0.77	0.23
2	154	2177	-0.00276409	0.00770374	0.0005	103613	25.1965	1.11583	0	288.534	2.36699e-08	8.12234e-21	4.43314e-21	0.77	0.23
2	155	2202	-0.00278407	0.00845829	0.0005	103570	25.192	0.573078	0	288.525	7.36367e-07	4.94614e-20	2.69958e-20	0.769999	0.23
2	156	2227	-0.00288737	0.00928267	0.0005	103540	26.1029	1.40433	0	288.531	1.16366e-05	2.23407e-19	1.21934e-19	0.769991	0.229997
2	157	2254	-0.00425475	0.010054	0.0005	103713	21.6725	0.27427	0	288.635	1.05789e-06	5.74274e-20	3.13437e-20	0.769999	0.23
2	158	2273	-0.0239966	0.011	0.0005	104646	22.9871	-0.149691	0	288.371	1.85464e-28	4.24519e-38	2.31701e-38	0.77	0.23
2	159	2298	-0.0239966	0.018	0.0005	102043	22.806	0.122784	0	287.95	1.55836e-29	3.00215e-39	1.63856e-39	0.77	0.23
2	160	2282	-0.00731874	0.0186042	0.0005	102268	19.8162	0.115566	0	288.032	1.68747e-11	1.14098e-22	6.22742e-23	0.77	0.23
2	161	2302	-0.00229999	0.0191016	0.0005	102406	22.4211	0.0158559	0	288.125	1.96612e-06	4.11971e-20	2.24852e-20	0.769998	0.23
2	162	2301	-0.00175697	0.0195737	0.0005	102432	22.3805	0.213254	0	288.148	3.3388e-05	1.78146e-19	9.72311e-20	0.769974	0.229992
2	163	2326	-0.0015963	0.0200584	0.0005	102442	22.5045	0.0758658	0	288.132	6.48645e-07	2.03794e-20	1.1123e-20	0.77	0.23
2	164	2326	-0.00159608	0.0205409	0.0005	102442	22.5045	0.0758658	0	288.132	6.48645e-07	2.03794e-20	1.1123e-20	0.77	0.23
2	165	2351	-0.00156928	0.0210152	0.0005	102429	23.0306	-0.0183036	0	288.119	5.50979e-09	1.71522e-21	9.36161e-22	0.77	0.23
2	166	2351	-0.00155179	0.0214844	0.0005	102429	23.0306	-0.0183036	0	288.119	5.50979e-09	1.71522e-21	9.36161e-22	0.77	0.23
2	167	2351	-0.00157426	0.0219565	0.0005	102429	23.0306	-0.0183036	0	288.119	5.50979e-09	1.71522e-21	9.36161e-22	0.77	0.23
2	168	2376	-0.00160677	0.02243	0.0005	102443	22.5648	-0.31464	0	288.134	2.738e-08	5.40828e-21	2.95182e-21	0.77	0.23
2	169	2376	-0.00161357	0.0229135	0.0005	102443	22.5648	-0.31464	0	288.134	2.738e-08	5.40828e-21	2.95182e-21	0.77	0.23
2	170	2401	-0.00177747	0.023403	0.0005	102434	22.3869	-0.255747	0	288.153	1.19722e-06	7.09258e-20	3.8711e-20	0.769999	0.23
2	171	2402	-0.00232266	0.0238834	0.0005	102410	22.3125	-0.154688	0	288.129	7.03909e-08	1.04092e-20	5.68129e-21	0.77	0.23
2	172	2432	-0.0073854	0.024397	0.0005	102273	19.7643	-0.117362	0	288.034	6.69898e-13	2.40523e-23	1.31276e-23	0.77	0.23
2	173	2448	-0.0239966	0.025	0.0005	102043	22.8223	-0.134528	0	287.95	2.1907e-30	3.85488e-40	2.10398e-40	0.77	0.23
2	182	2008	-0.00835226	0	0.0005	104089	23.9516	-0.0284782	0	288.733	1.55597e-27	2.81708e-37	1.53755e-37	0.77	0.23
2	183	2008	-0.00834959	0.000770653	0.0005	104089	23.9516	-0.0284782	0	288.733	1.55597e-27	2.81708e-37	1.53755e-37	0.77	0.23
2	184	2033	-0.0083487	0.00156209	0.0005	104091	23.9727	0.0494439	0	288.731	9.30383e-26	1.52935e-35	8.34715e-36	0.77	0.23
2	185	2058	-0.00834981	0.00232348	0.0005	104092	23.9615	-0.00836899	0	288.732	5.36216e-24	7.71071e-34	4.20847e-34	0.77	0.23
2	186	2083	-0.00834788	0.00311417	0.0005	104094	24.0339	0.0828369	0	288.731	2.94096e-22	3.69713e-32	2.01788e-32	0.77	0.23
2	187	2083	-0.00834823	0.00388752	0.0005	104094	24.0339	0.0828369	0	288.731	2.94096e-22	3.69713e-32	2.01788e-32	0.77	0.23
2	188	2108	-0.00834759	0.00465396	0.0005	104093	24.0186	0.0115836	0	288.732	1.62036e-20	1.79481e-30	9.79601e-31	0.77	0.23
2	189	2133	-0.00834101	0.00545077	0.0005	104090	24.1568	0.105475	0	288.728	8.99488e-19	8.98827e-29	4.90576e-29	0.77	0.23
2	190	2158	-0.00834381	0.00620718	0.0005	104084	24.133	-0.00298753	0	288.726	5.4857e-17	4.89117e-27	2.66958e-27	0.77	0.23
2	191	2158	-0.00833355	0.00699916	0.0005	104084	24.133	-0.00298753	0	288.726	5.4857e-17	4.89117e-27	2.66958e-27	0.77	0.23
2	192	2183	-0.0083255	0.00777685	0.0005	104078	24.3375	0.0658136	0	288.722	3.6917e-15	2.77252e-25	1.51323e-25	0.77	0.23
2	193	2208	-0.00832219	0.00853515	0.0005	104070	24.2942	-0.0801727	0	288.719	2.37471e-13	1.40501e-23	7.66848e-24	0.77	0.23
2	194	2233	-0.00835962	0.00933962	0.0005	104063	24.3249	-0.0631069	0	288.726	7.38554e-12	9.8125e-23	5.35562e-23	0.77	0.23
2	195	2259	-0.00932556	0.0100951	0.0005	104130	21.6112	-0.165483	0	288.769	4.55981e-12	7.96453e-23	4.34701e-23	0.77	0.23
2	196	2273	-0.0239966	0.011	0.0005	104646	22.9871	-0.149691	0	288.371	1.85464e-28	4.24519e-38	2.31701e-38	0.77	0.23
2	197	2298	-0.0239966	0.018	0.0005	102043	22.806	0.122784	0	287.95	1.55836e-29	3.00215e-39	1.63856e-39	0.77	0.23
2	198	2286	-0.0118673	0.0185806	0.0005	102177	20.4934	0.128064	0	287.984	2.39272e-16	4.13043e-26	2.25437e-26	0.77	0.23
2	199	2307	-0.00799323	0.019079	0.0005	102268	22.4799	0.108502	0	287.985	9.69471e-13	2.78659e-23	1.52091e-23	0.77	0.23
2	200	2307	-0.00769196	0.0195593	0.0005	102268	22.4799	0.108502	0	287.985	9.69471e-13	2.78659e-23	1.52091e-23	0.77	0.23
2	201	2332	-0.00761217	0.0200479	0.0005	102269	22.5874	0.0653611	0	287.97	1.69451e-14	2.82222e-24	1.54036e-24	0.77	0.23
2	202	2332	-0.00762708	0.0205344	0.0005	102269	22.5874	0.0653611	0	287.97	1.69451e-14	2.82222e-24	1.54036e-24	0.77	0.23
2	203	2357	-0.00761876	0.0210182	0.0005	102269	22.6628	0.00458077	0	287.969	2.441e-16	5.02295e-26	2.74151e-26	0.77	0.23
2	204	2357	-0.00761098	0.0214983	0.0005	102269	22.6628	0.00458077	0	287.969	2.441e-16	5.02295e-26	2.74151e-26	0.77	0.23
2	205	2357	-0.00761946	0.0219814	0.0005	102269	22.6628	0.00458077	0	287.969	2.441e-16	5.02295e-26	2.74151e-26	0.77	0.23
2	206	2382	-0.00762823	0.0224626	0.0005	102271	22.571	-0.0750584	0	287.973	1.32727e-15	2.09974e-25	1.14603e-25	0.77	0.23
2	207	2382	-0.00761385	0.0229494	0.0005	102271	22.571	-0.0750584	0	287.973	1.32727e-15	2.09974e-25	1.14603e-25	0.77	0.23
2	208	2407	-0.00769382	0.0234382	0.0005	102272	22.4647	-0.105244	0	287.987	4.25559e-14	5.43699e-24	2.96749e-24	0.77	0.23
2	209	2407	-0.0079957	0.0239193	0.0005	102272	22.4647	-0.105244	0	287.987	4.25559e-14	5.43699e-24	2.96749e-24	0.77	0.23
2	210	2436	-0.0119091	0.0244222	0.0005	102173	20.4829	-0.122683	0	287.983	2.23971e-17	4.28137e-27	2.33675e-27	0.77	0.23
2	211	2448	-0.0239966	0.025	0.0005	102043	22.8223	-0.134528	0	287.95	2.1907e-30	3.85488e-40	2.10398e-40	0.77	0.23
2	220	2014	-0.0141034	0	0.0005	104418	23.6103	-0.0263198	0	288.58	6.89528e-34	1.64766e-43	8.99289e-44	0.77	0.23
2	221	2014	-0.0141061	0.000776795	0.0005	104418	23.6103	-0.0263198	0	288.58	6.89528e-34	1.64766e-43	8.99289e-44	0.77	0.23
2	222	2039	-0.0141065	0.00156652	0.0005	104417	23.618	0.0377824	0	288.578	4.71457e-32	1.14686e-41	6.2595e-42	0.77	0.23
2	223	2064	-0.0141063	0.00233823	0.0005	104414	23.6207	-0.0256686	0	288.578	2.13159e-30	5.37888e-40	2.93577e-40	0.77	0.23
2	224	2089	-0.0141057	0.00312799	0.0005	104410	23.6458	0.0286874	0	288.576	9.51928e-29	2.43155e-38	1.32713e-38	0.77	0.23
2	225	2089	-0.0141051	0.00390604	0.0005	104410	23.6458	0.0286874	0	288.576	9.51928e-29	2.43155e-38	1.32713e-38	0.77	0.23
2	226	2114	-0.014105	0.00468049	0.0005	104406	23.6496	-0.056876	0	288.574	4.01434e-27	1.00415e-36	5.48059e-37	0.77	0.23
2	227	2139	-0.0141038	0.00547351	0.0005	104403	23.6943	-0.00903628	0	288.574	1.84801e-25	4.98026e-35	2.71821e-35	0.77	0.23
2	228	2164	-0.0141032	0.00624176	0.0005	104401	23.6902	-0.114716	0	288.573	6.54207e-24	1.71705e-33	9.37162e-34	0.77	0.23
2	229	2189	-0.0140983	0.00703308	0.0005	104401	23.7596	-0.06341	0	288.571	2.57432e-22	5.95508e-32	3.25026e-32	0.77	0.23
2	230	2189	-0.0140957	0.00781263	0.0005	104401	23.7596	-0.06341	0	288.571	2.57432e-22	5.95508e-32	3.25026e-32	0.77	0.23
2	231	2214	-0.0140901	0.00858363	0.0005	104401	23.7426	-0.182075	0	288.571	1.35258e-20	2.54466e-30	1.38887e-30	0.77	0.23
2	232	2239	-0.0140944	0.00937968	0.0005	104402	23.8636	-0.122533	0	288.577	4.64949e-19	7.27758e-29	3.97208e-29	0.77	0.23
2	233	2264	-0.0146924	0.0101405	0.0005	104402	22.1016	-0.203907	0	288.614	6.20514e-18	9.30927e-28	5.08096e-28	0.77	0.23
2	234	2273	-0.0239966	0.011	0.0005	104646	22.9871	-0.149691	0	288.371	1.85464e-28	4.24519e-38	2.31701e-38	0.77	0.23
2	235	2298	-0.0239966	0.018	0.0005	102043	22.806	0.122784	0	287.95	1.55836e-29	3.00215e-39	1.63856e-39	0.77	0.23
2	236	2291	-0.0163197	0.018554	0.0005	102106	21.4575	0.173673	0	287.792	2.49552e-21	6.13352e-31	3.34765e-31	0.77	0.23
2	237	2313	-0.0136517	0.0190512	0.0005	102144	22.7213	0.116712	0	287.91	3.69025e-19	8.6752e-29	4.73489e-29	0.77	0.23
2	238	2313	-0.0135276	0.019534	0.0005	102144	22.7213	0.116712	0	287.91	3.69025e-19	8.6752e-29	4.73489e-29	0.77	0.23
2	239	2338	-0.013501	0.0200279	0.0005	102142	22.6264	0.0770115	0	287.907	1.34199e-20	3.35461e-30	1.83093e-30	0.77	0.23
2	240	2338	-0.0135143	0.0205212	0.0005	102142	22.6264	0.0770115	0	287.907	1.34199e-20	3.35461e-30	1.83093e-30	0.77	0.23
2	241	2363	-0.0135138	0.0210123	0.0005	102143	22.698	0.015347	0	287.905	2.92231e-22	7.30048e-32	3.98457e-32	0.77	0.23
2	242	2363	-0.0135097	0.0214997	0.0005	102143	22.698	0.015347	0	287.905	2.92231e-22	7.30048e-32	3.98457e-32	0.77	0.23
2	243	2363	-0.013514	0.0219903	0.0005	102143	22.698	0.015347	0	287.905	2.92231e-22	7.30048e-32	3.98457e-32	0.77	0.23
2	244	2388	-0.0135145	0.0224784	0.0005	102141	22.6253	-0.0497006	0	287.906	1.26492e-21	3.0985e-31	1.69115e-31	0.77	0.23
2	245	2388	-0.0135012	0.0229718	0.0005	102141	22.6253	-0.0497006	0	287.906	1.26492e-21	3.0985e-31	1.69115e-31	0.77	0.23
2	246	2413	-0.0135277	0.0234657	0.0005	102141	22.7201	-0.0978696	0	287.908	3.24826e-20	7.85976e-30	4.28983e-30	0.77	0.23
2	247	2413	-0.013652	0.0239486	0.0005	102141	22.7201	-0.0978696	0	287.908	3.24826e-20	7.85976e-30	4.28983e-30	0.77	0.23
2	248	2441	-0.0163556	0.0244491	0.0005	102105	21.4682	-0.168264	0	287.791	2.74155e-22	6.76267e-32	3.69104e-32	0.77	0.23
2	249	2448	-0.0239966	0.025	0.0005	102043	22.8223	-0.134528	0	287.95	2.1907e-30	3.85488e-40	2.10398e-40	0.77	0.23
2	258	2019	-0.0195943	0	0.0005	104575	23.2344	-0.0194783	0	289.033	3.47655e-39	7.04118e-49	3.84305e-49	0.77	0.23
2	259	2019	-0.0195918	0.000782559	0.0005	104575	23.2344	-0.0194783	0	289.033	3.47655e-39	7.04118e-49	3.84305e-49	0.77	0.23
2	260	2044	-0.0195914	0.00157089	0.0005	104575	23.2401	0.00537416	0	289.032	1.72306e-37	3.56752e-47	1.94714e-47	0.77	0.23
2	261	2069	-0.0195912	0.00235238	0.0005	104576	23.2525	-0.0382584	0	289.035	8.89116e-36	1.86033e-45	1.01536e-45	0.77	0.23
2	262	2094	-0.0195916	0.00314067	0.0005	104577	23.2659	-0.0132982	0	289.035	4.62659e-34	9.83418e-44	5.36746e-44	0.77	0.23
2	263	2094	-0.0195916	0.0039232	0.0005	104577	23.2659	-0.0132982	0	289.035	4.62659e-34	9.83418e-44	5.36746e-44	0.77	0.23
2	264	2119	-0.0195907	0.00470517	0.0005	104578	23.2815	-0.0681172	0	289.035	2.11876e-32	4.61605e-42	2.51942e-42	0.77	0.23
2	265	2144	-0.0195904	0.00549403	0.0005	104581	23.299	-0.0362571	0	289.033	8.46746e-31	1.89035e-40	1.03174e-40	0.77	0.23
2	266	2169	-0.01959	0.00627394	0.0005	104581	23.3099	-0.106698	0	289.036	3.10772e-29	7.36065e-39	4.01741e-39	0.77	0.23
2	267	2194	-0.0195894	0.0070626	0.0005	104582	23.3417	-0.0593699	0	289.035	1.3939e-27	3.49106e-37	1.90541e-37	0.77	0.23
2	268	2194	-0.0195885	0.00784451	0.0005	104582	23.3417	-0.0593699	0	289.035	1.3939e-27	3.49106e-37	1.90541e-37	0.77	0.23
2	269	2219	-0.0195855	0.00862742	0.0005	104581	23.3407	-0.156181	0	289.034	4.81503e-26	1.24437e-35	6.79174e-36	0.77	0.23
2	270	2244	-0.0195837	0.00941411	0.0005	104582	23.4718	-0.0891576	0	289.03	1.12563e-24	3.05809e-34	1.66909e-34	0.77	0.23
2	271	2269	-0.0198503	0.0101851	0.0005	104580	22.6511	-0.23379	0	289.042	1.13298e-23	3.12794e-33	1.70722e-33	0.77	0.23
2	272	2274	-0.0240133	0.011	0.0005	104653	23.0147	-0.0938893	0	288.127	3.13232e-30	7.36672e-40	4.02072e-40	0.77	0.23
2	273	2299	-0.0240131	0.018	0.0005	102037	22.9491	0.0801158	0	288.007	3.3755e-31	6.32381e-41	3.45151e-41	0.77	0.23
2	274	2295	-0.0207862	0.0185214	0.0005	102067	22.269	0.178558	0	287.708	1.27295e-25	2.99463e-35	1.63445e-35	0.77	0.23
2	275	2319	-0.0194731	0.0190184	0.0005	102078	22.8494	0.0774211	0	287.661	1.31966e-25	3.08972e-35	1.68636e-35	0.77	0.23
2	276	2319	-0.019453	0.0195098	0.0005	102078	22.8494	0.0774211	0	287.661	1.31966e-25	3.08972e-35	1.68636e-35	0.77	0.23
2	277	2344	-0.0194488	0.0200089	0.0005	102076	22.7456	0.0584983	0	287.663	3.63404e-27	7.9168e-37	4.32096e-37	0.77	0.23
2	278	2344	-0.0194531	0.020507	0.0005	102076	22.7456	0.0584983	0	287.663	3.63404e-27	7.9168e-37	4.32096e-37	0.77	0.23
2	279	2369	-0.0194531	0.0210048	0.0005	102078	22.7843	0.000192075	0	287.662	8.93906e-29	1.77813e-38	9.70495e-39	0.77	0.23
2	280	2369	-0.0194534	0.0215001	0.0005	102078	22.7843	0.000192075	0	287.662	8.93906e-29	1.77813e-38	9.70495e-39	0.77	0.23
2	281	2369	-0.0194531	0.0219981	0.0005	102078	22.7843	0.000192075	0	287.662	8.93906e-29	1.77813e-38	9.70495e-39	0.77	0.23
2	282	2394	-0.0194531	0.0224931	0.0005	102075	22.7572	-0.0579894	0	287.662	4.72918e-28	9.00523e-38	4.91502e-38	0.77	0.23
2	283	2394	-0.0194488	0.0229911	0.0005	102075	22.7572	-0.0579894	0	287.662	4.72918e-28	9.00523e-38	4.91502e-38	0.77	0.23
2	284	2419	-0.0194531	0.0234902	0.0005	102078	22.8698	-0.0769307	0	287.662	1.65484e-26	3.35899e-36	1.83333e-36	0.77	0.23
2	285	2419	-0.0194732	0.0239816	0.0005	102078	22.8698	-0.0769307	0	287.662	1.65484e-26	3.35899e-36	1.83333e-36	0.77	0.23
2	286	2445	-0.0207999	0.0244817	0.0005	102066	22.2978	-0.181329	0	287.709	1.31716e-26	2.62618e-36	1.43336e-36	0.77	0.23
2	287	2449	-0.0240131	0.025	0.0005	102039	22.9541	-0.0933467	0	288.006	5.5304e-32	9.41935e-42	5.14104e-42	0.77	0.23
