# PROC_ID PARCEL_ID CellI X Y Z p Ux Uy Uz T C3H8 CO2 H2O N2 O2 largest_pointer wherePositive largest_pointerWP
2.000000e+00 6.800000e+01 9.000000e+00 9.077170e-03 0.000000e+00 5.000000e-04 1.031110e+05 2.384320e+01 2.234090e-01 0.000000e+00 2.883400e+02 1.491190e-10 9.956720e-22 5.434340e-22 7.700000e-01 2.300000e-01 6.000000e+00 0.000000e+00 0.000000e+00
2.000000e+00 6.900000e+01 9.000000e+00 9.092780e-03 7.747500e-04 5.000000e-04 1.031110e+05 2.384320e+01 2.234090e-01 0.000000e+00 2.883400e+02 1.491190e-10 9.956720e-22 5.434340e-22 7.700000e-01 2.300000e-01 6.000000e+00 0.000000e+00 0.000000e+00
2.000000e+00 7.000000e+01 4.900000e+01 9.113930e-03 1.539850e-03 5.000000e-04 1.031080e+05 2.391390e+01 5.626440e-02 0.000000e+00 2.883390e+02 4.663650e-09 6.547160e-21 3.573410e-21 7.700000e-01 2.300000e-01 6.000000e+00 0.000000e+00 0.000000e+00
2.000000e+00 7.100000e+01 8.900000e+01 9.108900e-03 2.327990e-03 5.000000e-04 1.031060e+05 2.379540e+01 5.516070e-01 0.000000e+00 2.883380e+02 1.094610e-07 3.687490e-20 2.012620e-20 7.700000e-01 2.300000e-01 9.000000e+00 0.000000e+00 0.000000e+00
2.000000e+00 7.200000e+01 1.290000e+02 9.188310e-03 3.118160e-03 5.000000e-04 1.030990e+05 2.408510e+01 5.213350e-01 0.000000e+00 2.883390e+02 2.151340e-06 1.645820e-19 8.982830e-20 7.699980e-01 2.300000e-01 5.000000e+00 0.000000e+00 0.000000e+00
2.000000e+00 7.300000e+01 1.290000e+02 9.215080e-03 3.910430e-03 5.000000e-04 1.030990e+05 2.408510e+01 5.213350e-01 0.000000e+00 2.883390e+02 2.151340e-06 1.645820e-19 8.982830e-20 7.699980e-01 2.300000e-01 5.000000e+00 0.000000e+00 0.000000e+00
2.000000e+00 7.400000e+01 1.690000e+02 9.288720e-03 4.739690e-03 5.000000e-04 1.030900e+05 2.374770e+01 1.121900e+00 0.000000e+00 2.883360e+02 4.290860e-05 6.532180e-19 3.565240e-19 7.699670e-01 2.299900e-01 5.000000e+00 0.000000e+00 0.000000e+00
2.000000e+00 7.500000e+01 2.090000e+02 9.475340e-03 5.615390e-03 5.000000e-04 1.030680e+05 2.459850e+01 1.522540e+00 0.000000e+00 2.883460e+02 7.440530e-04 3.302250e-18 1.802350e-18 7.694270e-01 2.298290e-01 6.000000e+00 0.000000e+00 0.000000e+00
2.000000e+00 7.600000e+01 2.490000e+02 9.535710e-03 6.424640e-03 5.000000e-04 1.030480e+05 2.357480e+01 1.771050e+00 0.000000e+00 2.884360e+02 4.802780e-03 9.801620e-18 5.349680e-18 7.663020e-01 2.288950e-01 5.000000e+00 0.000000e+00 0.000000e+00
2.000000e+00 7.700000e+01 2.890000e+02 9.891440e-03 7.643630e-03 5.000000e-04 1.030090e+05 2.491740e+01 4.232580e+00 0.000000e+00 2.888070e+02 1.864140e-02 1.088960e-16 5.943490e-17 7.556460e-01 2.257120e-01 5.000000e+00 0.000000e+00 0.000000e+00
2.000000e+00 7.800000e+01 3.300000e+02 1.011640e-02 8.319490e-03 5.000000e-04 1.029740e+05 2.353150e+01 4.445250e+00 0.000000e+00 2.959760e+02 5.561370e-02 1.759380e-14 9.602630e-15 7.271770e-01 2.172090e-01 6.000000e+00 0.000000e+00 0.000000e+00
2.000000e+00 7.900000e+01 3.690000e+02 9.528510e-03 9.972330e-03 5.000000e-04 1.029310e+05 1.844510e+01 6.155260e+00 0.000000e+00 3.594000e+02 9.213450e-02 2.149050e-13 1.172940e-13 6.990560e-01 2.088090e-01 8.000000e+00 0.000000e+00 0.000000e+00
2.000000e+00 8.000000e+01 4.490000e+02 9.703040e-03 1.182900e-02 5.000000e-04 1.028770e+05 1.610680e+01 8.045840e+00 0.000000e+00 3.987300e+02 1.284870e-01 8.533570e-12 4.657590e-12 6.710650e-01 2.004480e-01 9.000000e+00 0.000000e+00 0.000000e+00
2.000000e+00 8.100000e+01 3.680000e+02 8.255870e-03 9.358610e-03 5.000000e-04 1.029300e+05 2.131480e+01 5.266090e+00 0.000000e+00 3.492510e+02 1.676150e-01 6.064140e-14 3.309780e-14 6.409370e-01 1.914490e-01 5.000000e+00 0.000000e+00 0.000000e+00
2.000000e+00 8.200000e+01 2.273000e+03 -2.399660e-02 1.100000e-02 5.000000e-04 1.046460e+05 2.298710e+01 -1.496910e-01 0.000000e+00 2.883710e+02 1.854640e-28 4.245190e-38 2.317010e-38 7.700000e-01 2.300000e-01 5.000000e+00 0.000000e+00 0.000000e+00
2.000000e+00 8.300000e+01 2.298000e+03 -2.399660e-02 1.800000e-02 5.000000e-04 1.020430e+05 2.280600e+01 1.227840e-01 0.000000e+00 2.879500e+02 1.558360e-29 3.002150e-39 1.638560e-39 7.700000e-01 2.300000e-01 8.000000e+00 0.000000e+00 0.000000e+00
2.000000e+00 8.400000e+01 7.210000e+02 1.791550e-03 1.868150e-02 5.000000e-04 1.025660e+05 1.688320e+01 4.843760e-01 0.000000e+00 2.882550e+02 1.264060e-01 2.190980e-17 1.195830e-17 6.726670e-01 2.009270e-01 6.000000e+00 0.000000e+00 0.000000e+00
2.000000e+00 8.500000e+01 7.280000e+02 8.255270e-03 1.826040e-02 5.000000e-04 1.027130e+05 2.116810e+01 -6.334340e-01 0.000000e+00 2.898300e+02 1.662970e-01 8.390960e-16 4.579750e-16 6.419510e-01 1.917520e-01 5.000000e+00 0.000000e+00 0.000000e+00
2.000000e+00 8.600000e+01 7.690000e+02 9.464650e-03 1.916840e-02 5.000000e-04 1.026920e+05 2.226060e+01 2.060250e+00 0.000000e+00 2.883910e+02 6.175330e-02 3.747750e-16 2.045510e-16 7.224500e-01 2.157970e-01 5.000000e+00 0.000000e+00 0.000000e+00
2.000000e+00 8.700000e+01 7.690000e+02 9.761930e-03 1.979090e-02 5.000000e-04 1.026920e+05 2.226060e+01 2.060250e+00 0.000000e+00 2.883910e+02 6.175330e-02 3.747750e-16 2.045510e-16 7.224500e-01 2.157970e-01 5.000000e+00 0.000000e+00 0.000000e+00
2.000000e+00 8.800000e+01 8.090000e+02 9.725740e-03 2.013320e-02 5.000000e-04 1.026770e+05 2.211760e+01 -2.256210e-01 0.000000e+00 2.881660e+02 7.182510e-03 1.963560e-17 1.071700e-17 7.644690e-01 2.283480e-01 5.000000e+00 0.000000e+00 0.000000e+00
2.000000e+00 8.900000e+01 8.090000e+02 9.855060e-03 2.061540e-02 5.000000e-04 1.026770e+05 2.211760e+01 -2.256210e-01 0.000000e+00 2.881660e+02 7.182510e-03 1.963560e-17 1.071700e-17 7.644690e-01 2.283480e-01 5.000000e+00 0.000000e+00 0.000000e+00
2.000000e+00 9.000000e+01 8.500000e+02 1.000110e-02 2.121300e-02 5.000000e-04 1.026710e+05 2.263390e+01 -3.518540e-01 0.000000e+00 2.881800e+02 7.246150e-04 6.087600e-18 3.322590e-18 7.694420e-01 2.298330e-01 6.000000e+00 0.000000e+00 0.000000e+00
2.000000e+00 9.100000e+01 8.490000e+02 9.925710e-03 2.172230e-02 5.000000e-04 1.026590e+05 2.233130e+01 2.847980e-01 0.000000e+00 2.881900e+02 3.673090e-04 3.138210e-18 1.712820e-18 7.697170e-01 2.299160e-01 5.000000e+00 0.000000e+00 0.000000e+00
2.000000e+00 9.200000e+01 8.890000e+02 9.730280e-03 2.217320e-02 5.000000e-04 1.026590e+05 2.120340e+01 -4.844830e-01 0.000000e+00 2.882000e+02 4.392810e-04 1.600880e-17 8.737550e-18 7.696620e-01 2.298990e-01 5.000000e+00 0.000000e+00 0.000000e+00
2.000000e+00 9.300000e+01 8.890000e+02 9.596150e-03 2.268500e-02 5.000000e-04 1.026590e+05 2.120340e+01 -4.844830e-01 0.000000e+00 2.882000e+02 4.392810e-04 1.600880e-17 8.737550e-18 7.696620e-01 2.298990e-01 5.000000e+00 0.000000e+00 0.000000e+00
2.000000e+00 9.400000e+01 9.290000e+02 9.260680e-03 2.329060e-02 5.000000e-04 1.026420e+05 2.005460e+01 -5.698730e-02 0.000000e+00 2.882290e+02 2.071510e-03 7.087710e-17 3.868440e-17 7.684050e-01 2.295240e-01 5.000000e+00 0.000000e+00 0.000000e+00
2.000000e+00 9.500000e+01 9.280000e+02 8.231380e-03 2.399210e-02 5.000000e-04 1.026220e+05 2.045530e+01 6.442900e-01 0.000000e+00 2.882330e+02 1.533800e-03 5.299030e-17 2.892190e-17 7.688190e-01 2.296470e-01 6.000000e+00 0.000000e+00 0.000000e+00
2.000000e+00 9.600000e+01 9.610000e+02 1.725300e-03 2.423080e-02 5.000000e-04 1.024650e+05 1.867840e+01 -1.508990e+00 0.000000e+00 2.881890e+02 4.120810e-03 1.276300e-16 6.966000e-17 7.668270e-01 2.290520e-01 7.000000e+00 0.000000e+00 0.000000e+00
2.000000e+00 9.700000e+01 2.448000e+03 -2.399660e-02 2.500000e-02 5.000000e-04 1.020430e+05 2.282230e+01 -1.345280e-01 0.000000e+00 2.879500e+02 2.190700e-30 3.854880e-40 2.103980e-40 7.700000e-01 2.300000e-01 5.000000e+00 0.000000e+00 0.000000e+00
2.000000e+00 1.060000e+02 3.000000e+00 3.157200e-03 0.000000e+00 5.000000e-04 1.034010e+05 2.380070e+01 5.482560e-02 0.000000e+00 2.885220e+02 2.490870e-11 1.750010e-22 9.551480e-23 7.700000e-01 2.300000e-01 6.000000e+00 0.000000e+00 0.000000e+00
2.000000e+00 1.070000e+02 3.000000e+00 3.159070e-03 7.343980e-04 5.000000e-04 1.034010e+05 2.380070e+01 5.482560e-02 0.000000e+00 2.885220e+02 2.490870e-11 1.750010e-22 9.551480e-23 7.700000e-01 2.300000e-01 6.000000e+00 0.000000e+00 0.000000e+00
2.000000e+00 1.080000e+02 4.300000e+01 3.159670e-03 1.483690e-03 5.000000e-04 1.033940e+05 2.377270e+01 -1.717560e-01 0.000000e+00 2.885190e+02 1.544020e-09 1.434680e-21 7.830420e-22 7.700000e-01 2.300000e-01 6.000000e+00 0.000000e+00 0.000000e+00
2.000000e+00 1.090000e+02 8.300000e+01 3.147120e-03 2.207220e-03 5.000000e-04 1.033830e+05 2.370040e+01 -9.545200e-02 0.000000e+00 2.885150e+02 7.602070e-08 1.001610e-20 5.466740e-21 7.700000e-01 2.300000e-01 5.000000e+00 0.000000e+00 0.000000e+00
2.000000e+00 1.100000e+02 8.300000e+01 3.150800e-03 2.951110e-03 5.000000e-04 1.033830e+05 2.370040e+01 -9.545200e-02 0.000000e+00 2.885150e+02 7.602070e-08 1.001610e-20 5.466740e-21 7.700000e-01 2.300000e-01 5.000000e+00 0.000000e+00 0.000000e+00
2.000000e+00 1.110000e+02 1.230000e+02 3.131910e-03 3.672160e-03 5.000000e-04 1.033630e+05 2.352510e+01 -4.714120e-01 0.000000e+00 2.885070e+02 3.188720e-06 6.672610e-20 3.641880e-20 7.699980e-01 2.299990e-01 8.000000e+00 0.000000e+00 0.000000e+00
2.000000e+00 1.120000e+02 1.630000e+02 3.097060e-03 4.393450e-03 5.000000e-04 1.033480e+05 2.326100e+01 -5.448110e-01 0.000000e+00 2.884980e+02 9.644700e-05 4.150200e-19 2.265160e-19 7.699260e-01 2.299780e-01 6.000000e+00 0.000000e+00 0.000000e+00
2.000000e+00 1.130000e+02 2.030000e+02 3.075890e-03 5.113980e-03 5.000000e-04 1.033250e+05 2.245450e+01 -1.442920e+00 0.000000e+00 2.884850e+02 1.831900e-03 2.218560e-18 1.210880e-18 7.685890e-01 2.295790e-01 5.000000e+00 0.000000e+00 0.000000e+00
2.000000e+00 1.140000e+02 2.020000e+02 2.986710e-03 5.824250e-03 5.000000e-04 1.033580e+05 2.250990e+01 -2.078690e-03 0.000000e+00 2.885070e+02 1.369420e-04 6.612850e-19 3.609270e-19 7.698950e-01 2.299690e-01 5.000000e+00 0.000000e+00 0.000000e+00
2.000000e+00 1.150000e+02 2.420000e+02 2.892640e-03 6.588520e-03 5.000000e-04 1.033510e+05 2.133670e+01 1.106290e+00 0.000000e+00 2.884980e+02 2.042810e-03 2.673250e-18 1.459050e-18 7.684270e-01 2.295300e-01 6.000000e+00 0.000000e+00 0.000000e+00
2.000000e+00 1.160000e+02 2.820000e+02 2.757140e-03 7.341580e-03 5.000000e-04 1.033030e+05 1.950440e+01 1.210730e+00 0.000000e+00 2.884250e+02 1.812090e-02 8.733980e-18 4.766970e-18 7.560470e-01 2.258320e-01 5.000000e+00 0.000000e+00 0.000000e+00
2.000000e+00 1.170000e+02 3.220000e+02 2.519520e-03 8.368390e-03 5.000000e-04 1.032930e+05 1.784090e+01 4.791810e+00 0.000000e+00 2.882290e+02 7.074120e-02 1.792990e-17 9.786060e-18 7.155290e-01 2.137300e-01 5.000000e+00 0.000000e+00 0.000000e+00
2.000000e+00 1.180000e+02 3.620000e+02 2.295050e-03 9.258330e-03 5.000000e-04 1.031850e+05 1.624600e+01 4.283450e+00 0.000000e+00 2.880820e+02 1.794810e-01 2.733610e-17 1.491990e-17 6.317990e-01 1.887190e-01 5.000000e+00 0.000000e+00 0.000000e+00
2.000000e+00 1.190000e+02 4.000000e+02 8.919210e-04 1.004060e-02 5.000000e-04 1.030320e+05 2.665050e+01 1.027570e+01 0.000000e+00 2.883320e+02 2.514420e-02 1.120580e-17 6.116090e-18 7.506390e-01 2.242170e-01 5.000000e+00 0.000000e+00 0.000000e+00
2.000000e+00 1.200000e+02 2.273000e+03 -2.399650e-02 1.100000e-02 5.000000e-04 1.046460e+05 2.298710e+01 -1.496910e-01 0.000000e+00 2.883710e+02 1.854640e-28 4.245190e-38 2.317010e-38 7.700000e-01 2.300000e-01 5.000000e+00 0.000000e+00 0.000000e+00
2.000000e+00 1.210000e+02 2.298000e+03 -2.399660e-02 1.800000e-02 5.000000e-04 1.020430e+05 2.280600e+01 1.227840e-01 0.000000e+00 2.879500e+02 1.558360e-29 3.002150e-39 1.638560e-39 7.700000e-01 2.300000e-01 8.000000e+00 0.000000e+00 0.000000e+00
2.000000e+00 1.220000e+02 2.277000e+03 -2.788620e-03 1.862520e-02 5.000000e-04 1.024100e+05 1.881810e+01 3.565670e-01 0.000000e+00 2.881800e+02 2.854410e-05 1.652710e-19 9.020450e-20 7.699780e-01 2.299930e-01 8.000000e+00 0.000000e+00 0.000000e+00
2.000000e+00 1.230000e+02 7.630000e+02 3.409930e-03 1.909770e-02 5.000000e-04 1.025660e+05 2.367260e+01 8.142070e-01 0.000000e+00 2.882250e+02 2.027760e-02 1.025350e-17 5.596350e-18 7.543860e-01 2.253360e-01 5.000000e+00 0.000000e+00 0.000000e+00
2.000000e+00 1.240000e+02 7.640000e+02 4.285150e-03 1.950020e-02 5.000000e-04 1.025930e+05 2.389770e+01 -2.322950e-01 0.000000e+00 2.882360e+02 1.783590e-02 1.101400e-17 6.011420e-18 7.562660e-01 2.258980e-01 6.000000e+00 0.000000e+00 0.000000e+00
2.000000e+00 1.250000e+02 7.640000e+02 4.504080e-03 1.994480e-02 5.000000e-04 1.025930e+05 2.389770e+01 -2.322950e-01 0.000000e+00 2.882360e+02 1.783590e-02 1.101400e-17 6.011420e-18 7.562660e-01 2.258980e-01 6.000000e+00 0.000000e+00 0.000000e+00
2.000000e+00 1.260000e+02 8.040000e+02 4.480850e-03 2.042160e-02 5.000000e-04 1.025790e+05 2.370290e+01 1.500870e-01 0.000000e+00 2.881940e+02 9.109900e-04 1.835360e-18 1.001730e-18 7.692990e-01 2.297900e-01 5.000000e+00 0.000000e+00 0.000000e+00
2.000000e+00 1.270000e+02 8.040000e+02 4.535230e-03 2.090370e-02 5.000000e-04 1.025790e+05 2.370290e+01 1.500870e-01 0.000000e+00 2.881940e+02 9.109900e-04 1.835360e-18 1.001730e-18 7.692990e-01 2.297900e-01 5.000000e+00 0.000000e+00 0.000000e+00
2.000000e+00 1.280000e+02 8.440000e+02 4.586420e-03 2.139000e-02 5.000000e-04 1.025490e+05 2.421820e+01 4.749120e-01 0.000000e+00 2.881760e+02 2.453160e-05 2.998650e-19 1.636650e-19 7.699810e-01 2.299940e-01 5.000000e+00 0.000000e+00 0.000000e+00
2.000000e+00 1.290000e+02 8.440000e+02 4.516770e-03 2.186700e-02 5.000000e-04 1.025490e+05 2.421820e+01 4.749120e-01 0.000000e+00 2.881760e+02 2.453160e-05 2.998650e-19 1.636650e-19 7.699810e-01 2.299940e-01 5.000000e+00 0.000000e+00 0.000000e+00
2.000000e+00 1.300000e+02 8.840000e+02 4.411890e-03 2.233890e-02 5.000000e-04 1.025420e+05 2.348830e+01 7.222630e-01 0.000000e+00 2.881800e+02 6.168760e-05 2.389390e-18 1.304120e-18 7.699530e-01 2.299860e-01 5.000000e+00 0.000000e+00 0.000000e+00
2.000000e+00 1.310000e+02 8.840000e+02 4.384630e-03 2.284040e-02 5.000000e-04 1.025420e+05 2.348830e+01 7.222630e-01 0.000000e+00 2.881800e+02 6.168760e-05 2.389390e-18 1.304120e-18 7.699530e-01 2.299860e-01 5.000000e+00 0.000000e+00 0.000000e+00
2.000000e+00 1.320000e+02 9.240000e+02 4.167270e-03 2.334140e-02 5.000000e-04 1.025040e+05 2.398930e+01 1.412640e+00 0.000000e+00 2.881890e+02 8.036570e-04 2.657010e-17 1.450190e-17 7.693810e-01 2.298150e-01 6.000000e+00 0.000000e+00 0.000000e+00
2.000000e+00 1.330000e+02 9.230000e+02 3.303700e-03 2.377890e-02 5.000000e-04 1.024800e+05 2.429120e+01 6.680660e-01 0.000000e+00 2.881750e+02 7.987040e-04 2.613340e-17 1.426350e-17 7.693850e-01 2.298160e-01 6.000000e+00 0.000000e+00 0.000000e+00
2.000000e+00 1.340000e+02 2.427000e+03 -2.857270e-03 2.436640e-02 5.000000e-04 1.024170e+05 1.877950e+01 -2.860900e-01 0.000000e+00 2.881850e+02 9.783510e-07 6.073620e-20 3.314960e-20 7.699990e-01 2.300000e-01 5.000000e+00 0.000000e+00 0.000000e+00
2.000000e+00 1.350000e+02 2.448000e+03 -2.399660e-02 2.500000e-02 5.000000e-04 1.020430e+05 2.282230e+01 -1.345280e-01 0.000000e+00 2.879500e+02 2.190700e-30 3.854880e-40 2.103980e-40 7.700000e-01 2.300000e-01 5.000000e+00 0.000000e+00 0.000000e+00
2.000000e+00 1.440000e+02 2.002000e+03 -2.755580e-03 0.000000e+00 5.000000e-04 1.037110e+05 2.400870e+01 3.983650e-02 0.000000e+00 2.885830e+02 4.021860e-18 4.731870e-28 2.582630e-28 7.700000e-01 2.300000e-01 1.000000e+01 0.000000e+00 0.000000e+00
2.000000e+00 1.450000e+02 2.002000e+03 -2.756810e-03 7.557930e-04 5.000000e-04 1.037110e+05 2.400870e+01 3.983650e-02 0.000000e+00 2.885830e+02 4.021860e-18 4.731870e-28 2.582630e-28 7.700000e-01 2.300000e-01 1.000000e+01 0.000000e+00 0.000000e+00
2.000000e+00 1.460000e+02 2.027000e+03 -2.757760e-03 1.537530e-03 5.000000e-04 1.037060e+05 2.404900e+01 1.396240e-01 0.000000e+00 2.885820e+02 1.530370e-16 2.329390e-26 1.271370e-26 7.700000e-01 2.300000e-01 9.000000e+00 0.000000e+00 0.000000e+00
2.000000e+00 1.470000e+02 2.052000e+03 -2.764600e-03 2.282640e-03 5.000000e-04 1.036990e+05 2.401660e+01 2.082790e-01 0.000000e+00 2.885800e+02 3.399970e-15 7.690520e-25 4.197460e-25 7.700000e-01 2.300000e-01 8.000000e+00 0.000000e+00 0.000000e+00
2.000000e+00 1.480000e+02 2.077000e+03 -2.761680e-03 3.064610e-03 5.000000e-04 1.036890e+05 2.415620e+01 3.552160e-01 0.000000e+00 2.885730e+02 8.367890e-14 1.089610e-23 5.947050e-24 7.700000e-01 2.300000e-01 8.000000e+00 0.000000e+00 0.000000e+00
2.000000e+00 1.490000e+02 2.077000e+03 -2.767360e-03 3.827920e-03 5.000000e-04 1.036890e+05 2.415620e+01 3.552160e-01 0.000000e+00 2.885730e+02 8.367890e-14 1.089610e-23 5.947050e-24 7.700000e-01 2.300000e-01 8.000000e+00 0.000000e+00 0.000000e+00
2.000000e+00 1.500000e+02 2.102000e+03 -2.777790e-03 4.583770e-03 5.000000e-04 1.036780e+05 2.409820e+01 3.901110e-01 0.000000e+00 2.885720e+02 2.088710e-12 6.714570e-23 3.664790e-23 7.700000e-01 2.300000e-01 7.000000e+00 0.000000e+00 0.000000e+00
2.000000e+00 1.510000e+02 2.127000e+03 -2.768870e-03 5.379340e-03 5.000000e-04 1.036620e+05 2.443960e+01 6.734960e-01 0.000000e+00 2.885600e+02 4.215610e-11 3.274320e-22 1.787110e-22 7.700000e-01 2.300000e-01 6.000000e+00 0.000000e+00 0.000000e+00
2.000000e+00 1.520000e+02 2.152000e+03 -2.786060e-03 6.127350e-03 5.000000e-04 1.036400e+05 2.439430e+01 5.851260e-01 0.000000e+00 2.885540e+02 9.518480e-10 1.673300e-21 9.132800e-22 7.700000e-01 2.300000e-01 7.000000e+00 0.000000e+00 0.000000e+00
2.000000e+00 1.530000e+02 2.152000e+03 -2.774840e-03 6.921910e-03 5.000000e-04 1.036400e+05 2.439430e+01 5.851260e-01 0.000000e+00 2.885540e+02 9.518480e-10 1.673300e-21 9.132800e-22 7.700000e-01 2.300000e-01 7.000000e+00 0.000000e+00 0.000000e+00
2.000000e+00 1.540000e+02 2.177000e+03 -2.764090e-03 7.703740e-03 5.000000e-04 1.036130e+05 2.519650e+01 1.115830e+00 0.000000e+00 2.885340e+02 2.366990e-08 8.122340e-21 4.433140e-21 7.700000e-01 2.300000e-01 8.000000e+00 0.000000e+00 0.000000e+00
2.000000e+00 1.550000e+02 2.202000e+03 -2.784070e-03 8.458290e-03 5.000000e-04 1.035700e+05 2.519200e+01 5.730780e-01 0.000000e+00 2.885250e+02 7.363670e-07 4.946140e-20 2.699580e-20 7.699990e-01 2.300000e-01 5.000000e+00 0.000000e+00 0.000000e+00
2.000000e+00 1.560000e+02 2.227000e+03 -2.887370e-03 9.282670e-03 5.000000e-04 1.035400e+05 2.610290e+01 1.404330e+00 0.000000e+00 2.885310e+02 1.163660e-05 2.234070e-19 1.219340e-19 7.699910e-01 2.299970e-01 6.000000e+00 0.000000e+00 0.000000e+00
2.000000e+00 1.570000e+02 2.254000e+03 -4.254750e-03 1.005400e-02 5.000000e-04 1.037130e+05 2.167250e+01 2.742700e-01 0.000000e+00 2.886350e+02 1.057890e-06 5.742740e-20 3.134370e-20 7.699990e-01 2.300000e-01 8.000000e+00 0.000000e+00 0.000000e+00
2.000000e+00 1.580000e+02 2.273000e+03 -2.399660e-02 1.100000e-02 5.000000e-04 1.046460e+05 2.298710e+01 -1.496910e-01 0.000000e+00 2.883710e+02 1.854640e-28 4.245190e-38 2.317010e-38 7.700000e-01 2.300000e-01 5.000000e+00 0.000000e+00 0.000000e+00
2.000000e+00 1.590000e+02 2.298000e+03 -2.399660e-02 1.800000e-02 5.000000e-04 1.020430e+05 2.280600e+01 1.227840e-01 0.000000e+00 2.879500e+02 1.558360e-29 3.002150e-39 1.638560e-39 7.700000e-01 2.300000e-01 8.000000e+00 0.000000e+00 0.000000e+00
2.000000e+00 1.600000e+02 2.282000e+03 -7.318740e-03 1.860420e-02 5.000000e-04 1.022680e+05 1.981620e+01 1.155660e-01 0.000000e+00 2.880320e+02 1.687470e-11 1.140980e-22 6.227420e-23 7.700000e-01 2.300000e-01 6.000000e+00 0.000000e+00 0.000000e+00
2.000000e+00 1.610000e+02 2.302000e+03 -2.299990e-03 1.910160e-02 5.000000e-04 1.024060e+05 2.242110e+01 1.585590e-02 0.000000e+00 2.881250e+02 1.966120e-06 4.119710e-20 2.248520e-20 7.699980e-01 2.300000e-01 8.000000e+00 0.000000e+00 0.000000e+00
2.000000e+00 1.620000e+02 2.301000e+03 -1.756970e-03 1.957370e-02 5.000000e-04 1.024320e+05 2.238050e+01 2.132540e-01 0.000000e+00 2.881480e+02 3.338800e-05 1.781460e-19 9.723110e-20 7.699740e-01 2.299920e-01 8.000000e+00 0.000000e+00 0.000000e+00
2.000000e+00 1.630000e+02 2.326000e+03 -1.596300e-03 2.005840e-02 5.000000e-04 1.024420e+05 2.250450e+01 7.586580e-02 0.000000e+00 2.881320e+02 6.486450e-07 2.037940e-20 1.112300e-20 7.700000e-01 2.300000e-01 6.000000e+00 0.000000e+00 0.000000e+00
2.000000e+00 1.640000e+02 2.326000e+03 -1.596080e-03 2.054090e-02 5.000000e-04 1.024420e+05 2.250450e+01 7.586580e-02 0.000000e+00 2.881320e+02 6.486450e-07 2.037940e-20 1.112300e-20 7.700000e-01 2.300000e-01 6.000000e+00 0.000000e+00 0.000000e+00
2.000000e+00 1.650000e+02 2.351000e+03 -1.569280e-03 2.101520e-02 5.000000e-04 1.024290e+05 2.303060e+01 -1.830360e-02 0.000000e+00 2.881190e+02 5.509790e-09 1.715220e-21 9.361610e-22 7.700000e-01 2.300000e-01 8.000000e+00 0.000000e+00 0.000000e+00
2.000000e+00 1.660000e+02 2.351000e+03 -1.551790e-03 2.148440e-02 5.000000e-04 1.024290e+05 2.303060e+01 -1.830360e-02 0.000000e+00 2.881190e+02 5.509790e-09 1.715220e-21 9.361610e-22 7.700000e-01 2.300000e-01 8.000000e+00 0.000000e+00 0.000000e+00
2.000000e+00 1.670000e+02 2.351000e+03 -1.574260e-03 2.195650e-02 5.000000e-04 1.024290e+05 2.303060e+01 -1.830360e-02 0.000000e+00 2.881190e+02 5.509790e-09 1.715220e-21 9.361610e-22 7.700000e-01 2.300000e-01 8.000000e+00 0.000000e+00 0.000000e+00
2.000000e+00 1.680000e+02 2.376000e+03 -1.606770e-03 2.243000e-02 5.000000e-04 1.024430e+05 2.256480e+01 -3.146400e-01 0.000000e+00 2.881340e+02 2.738000e-08 5.408280e-21 2.951820e-21 7.700000e-01 2.300000e-01 7.000000e+00 0.000000e+00 0.000000e+00
2.000000e+00 1.690000e+02 2.376000e+03 -1.613570e-03 2.291350e-02 5.000000e-04 1.024430e+05 2.256480e+01 -3.146400e-01 0.000000e+00 2.881340e+02 2.738000e-08 5.408280e-21 2.951820e-21 7.700000e-01 2.300000e-01 7.000000e+00 0.000000e+00 0.000000e+00
2.000000e+00 1.700000e+02 2.401000e+03 -1.777470e-03 2.340300e-02 5.000000e-04 1.024340e+05 2.238690e+01 -2.557470e-01 0.000000e+00 2.881530e+02 1.197220e-06 7.092580e-20 3.871100e-20 7.699990e-01 2.300000e-01 6.000000e+00 0.000000e+00 0.000000e+00
2.000000e+00 1.710000e+02 2.402000e+03 -2.322660e-03 2.388340e-02 5.000000e-04 1.024100e+05 2.231250e+01 -1.546880e-01 0.000000e+00 2.881290e+02 7.039090e-08 1.040920e-20 5.681290e-21 7.700000e-01 2.300000e-01 6.000000e+00 0.000000e+00 0.000000e+00
2.000000e+00 1.720000e+02 2.432000e+03 -7.385400e-03 2.439700e-02 5.000000e-04 1.022730e+05 1.976430e+01 -1.173620e-01 0.000000e+00 2.880340e+02 6.698980e-13 2.405230e-23 1.312760e-23 7.700000e-01 2.300000e-01 8.000000e+00 0.000000e+00 0.000000e+00
2.000000e+00 1.730000e+02 2.448000e+03 -2.399660e-02 2.500000e-02 5.000000e-04 1.020430e+05 2.282230e+01 -1.345280e-01 0.000000e+00 2.879500e+02 2.190700e-30 3.854880e-40 2.103980e-40 7.700000e-01 2.300000e-01 5.000000e+00 0.000000e+00 0.000000e+00
2.000000e+00 1.820000e+02 2.008000e+03 -8.352260e-03 0.000000e+00 5.000000e-04 1.040890e+05 2.395160e+01 -2.847820e-02 0.000000e+00 2.887330e+02 1.555970e-27 2.817080e-37 1.537550e-37 7.700000e-01 2.300000e-01 5.000000e+00 0.000000e+00 0.000000e+00
2.000000e+00 1.830000e+02 2.008000e+03 -8.349590e-03 7.706530e-04 5.000000e-04 1.040890e+05 2.395160e+01 -2.847820e-02 0.000000e+00 2.887330e+02 1.555970e-27 2.817080e-37 1.537550e-37 7.700000e-01 2.300000e-01 5.000000e+00 0.000000e+00 0.000000e+00
2.000000e+00 1.840000e+02 2.033000e+03 -8.348700e-03 1.562090e-03 5.000000e-04 1.040910e+05 2.397270e+01 4.944390e-02 0.000000e+00 2.887310e+02 9.303830e-26 1.529350e-35 8.347150e-36 7.700000e-01 2.300000e-01 5.000000e+00 0.000000e+00 0.000000e+00
2.000000e+00 1.850000e+02 2.058000e+03 -8.349810e-03 2.323480e-03 5.000000e-04 1.040920e+05 2.396150e+01 -8.368990e-03 0.000000e+00 2.887320e+02 5.362160e-24 7.710710e-34 4.208470e-34 7.700000e-01 2.300000e-01 6.000000e+00 0.000000e+00 0.000000e+00
2.000000e+00 1.860000e+02 2.083000e+03 -8.347880e-03 3.114170e-03 5.000000e-04 1.040940e+05 2.403390e+01 8.283690e-02 0.000000e+00 2.887310e+02 2.940960e-22 3.697130e-32 2.017880e-32 7.700000e-01 2.300000e-01 6.000000e+00 0.000000e+00 0.000000e+00
2.000000e+00 1.870000e+02 2.083000e+03 -8.348230e-03 3.887520e-03 5.000000e-04 1.040940e+05 2.403390e+01 8.283690e-02 0.000000e+00 2.887310e+02 2.940960e-22 3.697130e-32 2.017880e-32 7.700000e-01 2.300000e-01 6.000000e+00 0.000000e+00 0.000000e+00
2.000000e+00 1.880000e+02 2.108000e+03 -8.347590e-03 4.653960e-03 5.000000e-04 1.040930e+05 2.401860e+01 1.158360e-02 0.000000e+00 2.887320e+02 1.620360e-20 1.794810e-30 9.796010e-31 7.700000e-01 2.300000e-01 9.000000e+00 0.000000e+00 0.000000e+00
2.000000e+00 1.890000e+02 2.133000e+03 -8.341010e-03 5.450770e-03 5.000000e-04 1.040900e+05 2.415680e+01 1.054750e-01 0.000000e+00 2.887280e+02 8.994880e-19 8.988270e-29 4.905760e-29 7.700000e-01 2.300000e-01 5.000000e+00 0.000000e+00 0.000000e+00
2.000000e+00 1.900000e+02 2.158000e+03 -8.343810e-03 6.207180e-03 5.000000e-04 1.040840e+05 2.413300e+01 -2.987530e-03 0.000000e+00 2.887260e+02 5.485700e-17 4.891170e-27 2.669580e-27 7.700000e-01 2.300000e-01 6.000000e+00 0.000000e+00 0.000000e+00
2.000000e+00 1.910000e+02 2.158000e+03 -8.333550e-03 6.999160e-03 5.000000e-04 1.040840e+05 2.413300e+01 -2.987530e-03 0.000000e+00 2.887260e+02 5.485700e-17 4.891170e-27 2.669580e-27 7.700000e-01 2.300000e-01 6.000000e+00 0.000000e+00 0.000000e+00
2.000000e+00 1.920000e+02 2.183000e+03 -8.325500e-03 7.776850e-03 5.000000e-04 1.040780e+05 2.433750e+01 6.581360e-02 0.000000e+00 2.887220e+02 3.691700e-15 2.772520e-25 1.513230e-25 7.700000e-01 2.300000e-01 5.000000e+00 0.000000e+00 0.000000e+00
2.000000e+00 1.930000e+02 2.208000e+03 -8.322190e-03 8.535150e-03 5.000000e-04 1.040700e+05 2.429420e+01 -8.017270e-02 0.000000e+00 2.887190e+02 2.374710e-13 1.405010e-23 7.668480e-24 7.700000e-01 2.300000e-01 5.000000e+00 0.000000e+00 0.000000e+00
2.000000e+00 1.940000e+02 2.233000e+03 -8.359620e-03 9.339620e-03 5.000000e-04 1.040630e+05 2.432490e+01 -6.310690e-02 0.000000e+00 2.887260e+02 7.385540e-12 9.812500e-23 5.355620e-23 7.700000e-01 2.300000e-01 5.000000e+00 0.000000e+00 0.000000e+00
2.000000e+00 1.950000e+02 2.259000e+03 -9.325560e-03 1.009510e-02 5.000000e-04 1.041300e+05 2.161120e+01 -1.654830e-01 0.000000e+00 2.887690e+02 4.559810e-12 7.964530e-23 4.347010e-23 7.700000e-01 2.300000e-01 6.000000e+00 0.000000e+00 0.000000e+00
2.000000e+00 1.960000e+02 2.273000e+03 -2.399660e-02 1.100000e-02 5.000000e-04 1.046460e+05 2.298710e+01 -1.496910e-01 0.000000e+00 2.883710e+02 1.854640e-28 4.245190e-38 2.317010e-38 7.700000e-01 2.300000e-01 5.000000e+00 0.000000e+00 0.000000e+00
2.000000e+00 1.970000e+02 2.298000e+03 -2.399660e-02 1.800000e-02 5.000000e-04 1.020430e+05 2.280600e+01 1.227840e-01 0.000000e+00 2.879500e+02 1.558360e-29 3.002150e-39 1.638560e-39 7.700000e-01 2.300000e-01 8.000000e+00 0.000000e+00 0.000000e+00
2.000000e+00 1.980000e+02 2.286000e+03 -1.186730e-02 1.858060e-02 5.000000e-04 1.021770e+05 2.049340e+01 1.280640e-01 0.000000e+00 2.879840e+02 2.392720e-16 4.130430e-26 2.254370e-26 7.700000e-01 2.300000e-01 8.000000e+00 0.000000e+00 0.000000e+00
2.000000e+00 1.990000e+02 2.307000e+03 -7.993230e-03 1.907900e-02 5.000000e-04 1.022680e+05 2.247990e+01 1.085020e-01 0.000000e+00 2.879850e+02 9.694710e-13 2.786590e-23 1.520910e-23 7.700000e-01 2.300000e-01 9.000000e+00 0.000000e+00 0.000000e+00
2.000000e+00 2.000000e+02 2.307000e+03 -7.691960e-03 1.955930e-02 5.000000e-04 1.022680e+05 2.247990e+01 1.085020e-01 0.000000e+00 2.879850e+02 9.694710e-13 2.786590e-23 1.520910e-23 7.700000e-01 2.300000e-01 9.000000e+00 0.000000e+00 0.000000e+00
2.000000e+00 2.010000e+02 2.332000e+03 -7.612170e-03 2.004790e-02 5.000000e-04 1.022690e+05 2.258740e+01 6.536110e-02 0.000000e+00 2.879700e+02 1.694510e-14 2.822220e-24 1.540360e-24 7.700000e-01 2.300000e-01 1.100000e+01 0.000000e+00 0.000000e+00
2.000000e+00 2.020000e+02 2.332000e+03 -7.627080e-03 2.053440e-02 5.000000e-04 1.022690e+05 2.258740e+01 6.536110e-02 0.000000e+00 2.879700e+02 1.694510e-14 2.822220e-24 1.540360e-24 7.700000e-01 2.300000e-01 1.100000e+01 0.000000e+00 0.000000e+00
2.000000e+00 2.030000e+02 2.357000e+03 -7.618760e-03 2.101820e-02 5.000000e-04 1.022690e+05 2.266280e+01 4.580770e-03 0.000000e+00 2.879690e+02 2.441000e-16 5.022950e-26 2.741510e-26 7.700000e-01 2.300000e-01 9.000000e+00 0.000000e+00 0.000000e+00
2.000000e+00 2.040000e+02 2.357000e+03 -7.610980e-03 2.149830e-02 5.000000e-04 1.022690e+05 2.266280e+01 4.580770e-03 0.000000e+00 2.879690e+02 2.441000e-16 5.022950e-26 2.741510e-26 7.700000e-01 2.300000e-01 9.000000e+00 0.000000e+00 0.000000e+00
2.000000e+00 2.050000e+02 2.357000e+03 -7.619460e-03 2.198140e-02 5.000000e-04 1.022690e+05 2.266280e+01 4.580770e-03 0.000000e+00 2.879690e+02 2.441000e-16 5.022950e-26 2.741510e-26 7.700000e-01 2.300000e-01 9.000000e+00 0.000000e+00 0.000000e+00
2.000000e+00 2.060000e+02 2.382000e+03 -7.628230e-03 2.246260e-02 5.000000e-04 1.022710e+05 2.257100e+01 -7.505840e-02 0.000000e+00 2.879730e+02 1.327270e-15 2.099740e-25 1.146030e-25 7.700000e-01 2.300000e-01 8.000000e+00 0.000000e+00 0.000000e+00
2.000000e+00 2.070000e+02 2.382000e+03 -7.613850e-03 2.294940e-02 5.000000e-04 1.022710e+05 2.257100e+01 -7.505840e-02 0.000000e+00 2.879730e+02 1.327270e-15 2.099740e-25 1.146030e-25 7.700000e-01 2.300000e-01 8.000000e+00 0.000000e+00 0.000000e+00
2.000000e+00 2.080000e+02 2.407000e+03 -7.693820e-03 2.343820e-02 5.000000e-04 1.022720e+05 2.246470e+01 -1.052440e-01 0.000000e+00 2.879870e+02 4.255590e-14 5.436990e-24 2.967490e-24 7.700000e-01 2.300000e-01 8.000000e+00 0.000000e+00 0.000000e+00
2.000000e+00 2.090000e+02 2.407000e+03 -7.995700e-03 2.391930e-02 5.000000e-04 1.022720e+05 2.246470e+01 -1.052440e-01 0.000000e+00 2.879870e+02 4.255590e-14 5.436990e-24 2.967490e-24 7.700000e-01 2.300000e-01 8.000000e+00 0.000000e+00 0.000000e+00
2.000000e+00 2.100000e+02 2.436000e+03 -1.190910e-02 2.442220e-02 5.000000e-04 1.021730e+05 2.048290e+01 -1.226830e-01 0.000000e+00 2.879830e+02 2.239710e-17 4.281370e-27 2.336750e-27 7.700000e-01 2.300000e-01 5.000000e+00 0.000000e+00 0.000000e+00
2.000000e+00 2.110000e+02 2.448000e+03 -2.399660e-02 2.500000e-02 5.000000e-04 1.020430e+05 2.282230e+01 -1.345280e-01 0.000000e+00 2.879500e+02 2.190700e-30 3.854880e-40 2.103980e-40 7.700000e-01 2.300000e-01 5.000000e+00 0.000000e+00 0.000000e+00