# vtk DataFile Version 2.0
sampleSurface
ASCII
DATASET POLYDATA
POINTS 16001 float
0 0 0.0005 0 0.001 0.0005 0.001 0 0.0005 -0.001 0
0.0005 0.001 0.001 0.0005 -0.001 0.001 0.0005 0.002 0 0.0005
0 0.002 0.0005 -0.002 0 0.0005 0.002 0.001 0.0005 0.001
0.002 0.0005 -0.002 0.001 0.0005 -0.001 0.002 0.0005 0.002 0.002
0.0005 -0.002 0.002 0.0005 0.003 0 0.0005 0 0.003 0.0005
-0.003 0 0.0005 0.003 0.001 0.0005 0.001 0.003 0.0005 -0.003
0.001 0.0005 -0.001 0.003 0.0005 0.003 0.002 0.0005 0.002 0.003
0.0005 -0.003 0.002 0.0005 -0.002 0.003 0.0005 0.004 0 0.0005
0 0.004 0.0005 -0.004 0 0.0005 0.004 0.001 0.0005 0.001
0.004 0.0005 -0.004 0.001 0.0005 -0.001 0.004 0.0005 0.003 0.003
0.0005 -0.003 0.003 0.0005 0.004 0.002 0.0005 0.002 0.004 0.0005
-0.004 0.002 0.0005 -0.002 0.004 0.0005 0.004 0.003 0.0005 0.003
0.004 0.0005 -0.004 0.003 0.0005 -0.003 0.004 0.0005 0.005 0
0.0005 0 0.005 0.0005 -0.005 0 0.0005 0.005 0.001 0.0005
0.001 0.005 0.0005 -0.005 0.001 0.0005 -0.001 0.005 0.0005 0.005
0.002 0.0005 0.002 0.005 0.0005 -0.005 0.002 0.0005 -0.002 0.005
0.0005 0.004 0.004 0.0005 -0.004 0.004 0.0005 0.005 0.003 0.0005
0.003 0.005 0.0005 -0.005 0.003 0.0005 -0.003 0.005 0.0005 0.006
0 0.0005 0 0.006 0.0005 -0.006 0 0.0005 0.006 0.001
0.0005 0.001 0.006 0.0005 -0.006 0.001 0.0005 -0.001 0.006 0.0005
0.006 0.002 0.0005 0.002 0.006 0.0005 -0.006 0.002 0.0005 -0.002
0.006 0.0005 0.005 0.004 0.0005 0.004 0.005 0.0005 -0.005 0.004
0.0005 -0.004 0.005 0.0005 0.006 0.003 0.0005 0.003 0.006 0.0005
-0.006 0.003 0.0005 -0.003 0.006 0.0005 0.007 0 0.0005 0
0.007 0.0005 -0.007 0 0.0005 0.007 0.001 0.0005 0.005 0.005
0.0005 0.001 0.007 0.0005 -0.007 0.001 0.0005 -0.005 0.005 0.0005
-0.001 0.007 0.0005 0.006 0.004 0.0005 0.004 0.006 0.0005 -0.006
0.004 0.0005 -0.004 0.006 0.0005 0.007 0.002 0.0005 0.002 0.007
0.0005 -0.007 0.002 0.0005 -0.002 0.007 0.0005 0.007 0.003 0.0005
0.003 0.007 0.0005 -0.007 0.003 0.0005 -0.003 0.007 0.0005 0.006
0.005 0.0005 0.005 0.006 0.0005 -0.006 0.005 0.0005 -0.005 0.006
0.0005 0.008 0 0.0005 0 0.008 0.0005 -0.008 0 0.0005
0.008 0.001 0.0005 0.001 0.008 0.0005 -0.008 0.001 0.0005 -0.001
0.008 0.0005 0.007 0.004 0.0005 0.004 0.007 0.0005 -0.007 0.004
0.0005 -0.004 0.007 0.0005 0.008 0.002 0.0005 0.002 0.008 0.0005
-0.008 0.002 0.0005 -0.002 0.008 0.0005 0.006 0.006 0.0005 -0.006
0.006 0.0005 0.008 0.003 0.0005 0.003 0.008 0.0005 -0.008 0.003
0.0005 -0.003 0.008 0.0005 0.007 0.005 0.0005 0.005 0.007 0.0005
-0.007 0.005 0.0005 -0.005 0.007 0.0005 0.008 0.004 0.0005 0.004
0.008 0.0005 -0.008 0.004 0.0005 -0.004 0.008 0.0005 0.009 0
0.0005 0 0.009 0.0005 -0.009 0 0.0005 0.009 0.001 0.0005
0.001 0.009 0.0005 -0.009 0.001 0.0005 -0.001 0.009 0.0005 0.009
0.002 0.0005 0.002 0.009 0.0005 -0.009 0.002 0.0005 -0.002 0.009
0.0005 0.007 0.006 0.0005 0.006 0.007 0.0005 -0.007 0.006 0.0005
-0.006 0.007 0.0005 0.008 0.005 0.0005 0.005 0.008 0.0005 -0.008
0.005 0.0005 -0.005 0.008 0.0005 0.009 0.003 0.0005 0.003 0.009
0.0005 -0.009 0.003 0.0005 -0.003 0.009 0.0005 0.009 0.004 0.0005
0.004 0.009 0.0005 -0.009 0.004 0.0005 -0.004 0.009 0.0005 0.007
0.007 0.0005 -0.007 0.007 0.0005 0.008 0.006 0.0005 0.006 0.008
0.0005 -0.008 0.006 0.0005 -0.006 0.008 0.0005 0.01 0 0.0005
0 0.01 0.0005 -0.01 0 0.0005 0.01 0.001 0.0005 0.001
0.01 0.0005 -0.01 0.001 0.0005 -0.001 0.01 0.0005 0.01 0.002
0.0005 0.002 0.01 0.0005 -0.01 0.002 0.0005 -0.002 0.01 0.0005
0.009 0.005 0.0005 0.005 0.009 0.0005 -0.009 0.005 0.0005 -0.005
0.009 0.0005 0.01 0.003 0.0005 0.003 0.01 0.0005 -0.01 0.003
0.0005 -0.003 0.01 0.0005 0.008 0.007 0.0005 0.007 0.008 0.0005
-0.008 0.007 0.0005 -0.007 0.008 0.0005 0.01 0.004 0.0005 0.004
0.01 0.0005 -0.01 0.004 0.0005 -0.004 0.01 0.0005 0.009 0.006
0.0005 0.006 0.009 0.0005 -0.009 0.006 0.0005 -0.006 0.009 0.0005
0.011 0 0.0005 0 0.011 0.0005 -0.011 0 0.0005 0.011
0.001 0.0005 0.001 0.011 0.0005 -0.011 0.001 0.0005 -0.001 0.011
0.0005 0.011 0.002 0.0005 0.002 0.011 0.0005 -0.011 0.002 0.0005
-0.002 0.011 0.0005 0.01 0.005 0.0005 0.005 0.01 0.0005 -0.01
0.005 0.0005 -0.005 0.01 0.0005 0.008 0.008 0.0005 -0.008 0.008
0.0005 0.011 0.003 0.0005 0.009 0.007 0.0005 0.007 0.009 0.0005
0.003 0.011 0.0005 -0.011 0.003 0.0005 -0.009 0.007 0.0005 -0.007
0.009 0.0005 -0.003 0.011 0.0005 0.01 0.006 0.0005 0.006 0.01
0.0005 -0.01 0.006 0.0005 -0.006 0.01 0.0005 0.011 0.004 0.0005
0.004 0.011 0.0005 -0.011 0.004 0.0005 -0.004 0.011 0.0005 0.012
0 0.0005 0 0.012 0.0005 -0.012 0 0.0005 0.012 0.001
0.0005 0.009 0.008 0.0005 0.008 0.009 0.0005 0.001 0.012 0.0005
-0.012 0.001 0.0005 -0.009 0.008 0.0005 -0.008 0.009 0.0005 -0.001
0.012 0.0005 0.011 0.005 0.0005 0.005 0.011 0.0005 -0.011 0.005
0.0005 -0.005 0.011 0.0005 0.012 0.002 0.0005 0.002 0.012 0.0005
-0.012 0.002 0.0005 -0.002 0.012 0.0005 0.01 0.007 0.0005 0.007
0.01 0.0005 -0.01 0.007 0.0005 -0.007 0.01 0.0005 0.012 0.003
0.0005 0.003 0.012 0.0005 -0.012 0.003 0.0005 -0.003 0.012 0.0005
0.011 0.006 0.0005 0.006 0.011 0.0005 -0.011 0.006 0.0005 -0.006
0.011 0.0005 0.012 0.004 0.0005 0.004 0.012 0.0005 -0.012 0.004
0.0005 -0.004 0.012 0.0005 0.009 0.009 0.0005 -0.009 0.009 0.0005
0.01 0.008 0.0005 0.008 0.01 0.0005 -0.01 0.008 0.0005 -0.008
0.01 0.0005 0.013 0 0.0005 0 0.013 0.0005 -0.013 0
0.0005 0.012 0.005 0.0005 0.005 0.012 0.0005 -0.012 0.005 0.0005
-0.005 0.012 0.0005 0.013 0.001 0.0005 0.011 0.007 0.0005 0.007
0.011 0.0005 0.001 0.013 0.0005 -0.013 0.001 0.0005 -0.011 0.007
0.0005 -0.007 0.011 0.0005 -0.001 0.013 0.0005 0.013 0.002 0.0005
0.002 0.013 0.0005 -0.013 0.002 0.0005 -0.002 0.013 0.0005 0.013
0.003 0.0005 0.003 0.013 0.0005 -0.013 0.003 0.0005 -0.003 0.013
0.0005 0.012 0.006 0.0005 0.006 0.012 0.0005 -0.012 0.006 0.0005
-0.006 0.012 0.0005 0.01 0.009 0.0005 0.009 0.01 0.0005 -0.01
0.009 0.0005 -0.009 0.01 0.0005 0.013 0.004 0.0005 0.011 0.008
0.0005 0.008 0.011 0.0005 0.004 0.013 0.0005 -0.013 0.004 0.0005
-0.011 0.008 0.0005 -0.008 0.011 0.0005 -0.004 0.013 0.0005 0.012
0.007 0.0005 0.007 0.012 0.0005 -0.012 0.007 0.0005 -0.007 0.012
0.0005 0.013 0.005 0.0005 0.005 0.013 0.0005 -0.013 0.005 0.0005
-0.005 0.013 0.0005 0.014 0 0.0005 0 0.014 0.0005 -0.014
0 0.0005 0.014 0.001 0.0005 0.001 0.014 0.0005 -0.014 0.001
0.0005 -0.001 0.014 0.0005 0.014 0.002 0.0005 0.01 0.01 0.0005
0.002 0.014 0.0005 -0.014 0.002 0.0005 -0.01 0.01 0.0005 -0.002
0.014 0.0005 0.011 0.009 0.0005 0.009 0.011 0.0005 -0.011 0.009
0.0005 -0.009 0.011 0.0005 0.013 0.006 0.0005 0.006 0.013 0.0005
-0.013 0.006 0.0005 -0.006 0.013 0.0005 0.014 0.003 0.0005 0.003
0.014 0.0005 -0.014 0.003 0.0005 -0.003 0.014 0.0005 0.012 0.008
0.0005 0.008 0.012 0.0005 -0.012 0.008 0.0005 -0.008 0.012 0.0005
0.014 0.004 0.0005 0.004 0.014 0.0005 -0.014 0.004 0.0005 -0.004
0.014 0.0005 0.013 0.007 0.0005 0.007 0.013 0.0005 -0.013 0.007
0.0005 -0.007 0.013 0.0005 0.011 0.01 0.0005 0.01 0.011 0.0005
-0.011 0.01 0.0005 -0.01 0.011 0.0005 0.014 0.005 0.0005 0.005
0.014 0.0005 -0.014 0.005 0.0005 -0.005 0.014 0.0005 0.015 0
0.0005 0.012 0.009 0.0005 0.009 0.012 0.0005 0 0.015 0.0005
-0.015 0 0.0005 -0.012 0.009 0.0005 -0.009 0.012 0.0005 0.015
0.001 0.0005 0.001 0.015 0.0005 -0.015 0.001 0.0005 -0.001 0.015
0.0005 0.015 0.002 0.0005 0.002 0.015 0.0005 -0.015 0.002 0.0005
-0.002 0.015 0.0005 0.014 0.006 0.0005 0.006 0.014 0.0005 -0.014
0.006 0.0005 -0.006 0.014 0.0005 0.013 0.008 0.0005 0.008 0.013
0.0005 -0.013 0.008 0.0005 -0.008 0.013 0.0005 0.015 0.003 0.0005
0.003 0.015 0.0005 -0.015 0.003 0.0005 -0.003 0.015 0.0005 0.015
0.004 0.0005 0.004 0.015 0.0005 -0.015 0.004 0.0005 -0.004 0.015
0.0005 0.011 0.011 0.0005 -0.011 0.011 0.0005 0.012 0.01 0.0005
0.01 0.012 0.0005 -0.012 0.01 0.0005 -0.01 0.012 0.0005 0.014
0.007 0.0005 0.007 0.014 0.0005 -0.014 0.007 0.0005 -0.007 0.014
0.0005 0.015 0.005 0.0005 0.013 0.009 0.0005 0.009 0.013 0.0005
0.005 0.015 0.0005 -0.015 0.005 0.0005 -0.013 0.009 0.0005 -0.009
0.013 0.0005 -0.005 0.015 0.0005 0.016 0 0.0005 0 0.016
0.0005 -0.016 0 0.0005 0.016 0.001 0.0005 0.001 0.016 0.0005
-0.016 0.001 0.0005 -0.001 0.016 0.0005 0.016 0.002 0.0005 0.002
0.016 0.0005 -0.016 0.002 0.0005 -0.002 0.016 0.0005 0.014 0.008
0.0005 0.008 0.014 0.0005 -0.014 0.008 0.0005 -0.008 0.014 0.0005
0.015 0.006 0.0005 0.006 0.015 0.0005 -0.015 0.006 0.0005 -0.006
0.015 0.0005 0.016 0.003 0.0005 0.012 0.011 0.0005 0.011 0.012
0.0005 0.003 0.016 0.0005 -0.016 0.003 0.0005 -0.012 0.011 0.0005
-0.011 0.012 0.0005 -0.003 0.016 0.0005 0.013 0.01 0.0005 0.01
0.013 0.0005 -0.013 0.01 0.0005 -0.01 0.013 0.0005 0.016 0.004
0.0005 0.004 0.016 0.0005 -0.016 0.004 0.0005 -0.004 0.016 0.0005
0.015 0.007 0.0005 0.007 0.015 0.0005 -0.015 0.007 0.0005 -0.007
0.015 0.0005 0.014 0.009 0.0005 0.009 0.014 0.0005 -0.014 0.009
0.0005 -0.009 0.014 0.0005 0.016 0.005 0.0005 0.005 0.016 0.0005
-0.016 0.005 0.0005 -0.005 0.016 0.0005 0.012 0.012 0.0005 -0.012
0.012 0.0005 0.015 0.008 0.0005 0.008 0.015 0.0005 -0.015 0.008
0.0005 -0.008 0.015 0.0005 0.017 0 0.0005 0 0.017 0.0005
-0.017 0 0.0005 0.013 0.011 0.0005 0.011 0.013 0.0005 -0.013
0.011 0.0005 -0.011 0.013 0.0005 0.017 0.001 0.0005 0.001 0.017
0.0005 -0.017 0.001 0.0005 -0.001 0.017 0.0005 0.016 0.006 0.0005
0.006 0.016 0.0005 -0.016 0.006 0.0005 -0.006 0.016 0.0005 0.017
0.002 0.0005 0.002 0.017 0.0005 -0.017 0.002 0.0005 -0.002 0.017
0.0005 0.014 0.01 0.0005 0.01 0.014 0.0005 -0.014 0.01 0.0005
-0.01 0.014 0.0005 0.017 0.003 0.0005 0.003 0.017 0.0005 -0.017
0.003 0.0005 -0.003 0.017 0.0005 0.016 0.007 0.0005 0.007 0.016
0.0005 -0.016 0.007 0.0005 -0.007 0.016 0.0005 0.017 0.004 0.0005
0.004 0.017 0.0005 -0.017 0.004 0.0005 -0.004 0.017 0.0005 0.015
0.009 0.0005 0.009 0.015 0.0005 -0.015 0.009 0.0005 -0.009 0.015
0.0005 0.013 0.012 0.0005 0.012 0.013 0.0005 -0.012 0.013 0.0005
-0.013 0.012 0.0005 0.017 0.005 0.0005 0.005 0.017 0.0005 -0.017
0.005 0.0005 -0.005 0.017 0.0005 0.014 0.011 0.0005 0.011 0.014
0.0005 -0.014 0.011 0.0005 -0.011 0.014 0.0005 0.016 0.008 0.0005
0.008 0.016 0.0005 -0.016 0.008 0.0005 -0.008 0.016 0.0005 0.018
[...]
POINT_DATA 16001
FIELD attributes 17
p 1 16001 float
105274 105270 105346 105187 105333 105195 105382 105265 105119 105370 105310
105132 105215 105350 105163 105388 105274 105081 105386 105304 105092
105243 105390 105347 105118 105200 105389 105301 105065 105400 105330
105070 105272 105401 105146 105429 105374 105080 105226 105450 105423
105089 105162 105401 105337 105051 105418 105375 105050 105295 105458
105414 105046 105237 105460 105093 105477 105441 105040 105166 105420
105361 105028 105437 105411 105023 105301 105474 105447 105012 105232
105478 105462 105035 105093 105490 105469 104999 105159 105432 105362
104995 105444 105484 105417 104990 105034 105296 105497 105501 104990
105092 105480 105460 104977 105223 105503 105505 104963 105154 105525
105552 104991 105038 105431 105333 104956 105443 105393 104952 105274
105530 105582 104956 105093 105485 105467 104941 105212 105612 104998
105523 105573 104929 105150 105578 105664 104957 105044 105572 105707
104923 105095 105432 105287 104915 105444 105350 104912 105250 105492
105465 104904 105204 105654 105713 104965 105005 105625 105793 104925
105045 105545 105627 104896 105150 105606 105782 104892 105095 105702
104971 105671 105786 104932 105004 105443 105196 104875 105453 105256
104873 105201 105500 105423 104870 105195 105653 105827 104895 105039
105557 105667 104867 105148 105674 105713 104940 104970 105622 105833
104867 105094 105681 105776 104902 104994 105463 104953 104840 105469
105059 104840 105155 105507 105335 104842 105186 105666 105825 104871
105030 105670 104944 105562 105674 105703 105698 104846 104914 104961
105141 105696 105747 104881 104981 105633 105901 104852 105091 105483
105273 104814 105484 105700 105700 105170 104817 104927 104944 105740
105671 105860 104861 105024 105513 105441 104824 105796 105709 105710
104898 104949 105566 105769 104836 105818 105709 105753 104875 104974
105637 105925 104849 105792 105775 104938 105786 105755 104918 104941
105499 105620 104801 105666 105834 104865 105787 105498 105719 105737
105530 104805 104895 104944 105763 105524 105702 104818 105808 105579
105905 104835 105818 105679 105729 104883 105802 105844 105827 104940
104946 105649 105810 105806 105963 104856 104920 104939 105789 105676
105754 104905 105843 105669 105834 104878 105786 105510 105809 104797
105509 105780 104802 105846 105534 105790 105852 104817 104957 105853
105723 105836 104946 104948 105663 105750 104901 105804 105593 105957
104839 105822 105690 105826 104929 105890 105659 105960 104866 105783
105659 105792 104923 105846 105528 105742 104965 104962 105668 105837
104893 105781 105521 105531 105801 105941 104795 104953 105937 105521
105945 104801 105923 105545 105965 104817 105889 105663 105780 104919
105806 105642 105820 104945 105891 105607 106003 104841 105822 105665
105968 104870 105770 105538 104972 105393 105710 104971 105975 105696
105805 104943 105851 105670 105543 105750 105844 104901 104964 105935
105767 105539 106025 104791 105538 106057 104797 105974 105558 106081
104811 105909 105707 105780 104963 105894 105666 105793 104931 105802
105616 105444 105567 106089 104835 104977 105997 105819 105469 105706
104977 105969 105668 106019 104864 105757 105732 105799 104958 105854
105580 105705 104978 105929 105673 105873 104898 105752 105495 105998
105724 105774 104980 105897 105564 106060 104782 105476 105651 104981
105988 105559 106128 104787 106006 105667 105794 104933 105793 105570
106146 104800 105927 105472 105722 104988 105953 105619 106140 104822
105821 105714 105781 104966 105853 105665 106055 104851 105753 105570
105757 104996 105923 105521 105615 105989 105976 105677 105897 104887
105746 105467 105732 104991 105966 105680 105788 104994 105899 105589
106252 104771 105579 105492 105805 106227 104775 105006 106465 105935
105659 105801 104926 105789 105581 106246 104786 106544 105616 106230
104807 106594 105557 105837 105014 105919 105631 105969 105714 105789
104965 105852 105665 106137 104835 106637 105503 105713 105931 105967
105485 105821 105008 105940 105669 105950 104872 106674 105673 105821
105000 105899 105521 105904 105027 105922 105643 105825 104913 106711
105610 106361 104761 105597 106312 104765 106460 105595 105597 105711
106323 104775 106535 105927 105951 105516 105802 105870 105939 105625
105571 105893 106314 104795 105028 106588 105917 105673 105833 104957
106745 105514 105912 105031 105920 105681 106232 104822 106632 105685
106027 104859 106672 105654 105891 104999 106772 105579 105979 105045
105917 105650 105917 105595 105769 105869 105929 105659 105845 104902
106710 105539 105873 105800 105918 105629 106357 104757 105615 106294
104761 106451 105612 106288 104772 106519 105622 105951 105033 106795
105643 106296 104791 106574 105664 105566 106043 105829 104947 105051
106745 105912 105704 106272 104819 106621 105630 105692 105866 105904
105636 106019 105055 106814 105667 105604 105797 105904 104991 106772
105801 105911 105717 106126 104854 106667 105586 106017 105728 105910
105700 105925 104895 106710 105657 106332 104762 105674 105960 105028
106794 105640 106249 104766 106422 105620 106067 105062 106831 105633
106205 104777 106490 105699 105797 104939 106746 105660 105862 105656
106203 104797 106548 105636 105655 105804 105893 105715 106224 104824
106602 105626 105891 105730 105904 105676 106001 105052 106813 105683
105788 104980 106773 105696 106182 104857 106657 105630 106044 106844
105656 105674 106052 104895 106707 105682 105656 105600 105832 105015
106794 105808 105859 105665 106004 105059 106830 105692 106290 104773
105673 106190 104778 106385 105648 105725 105736 105889 105655 106118
104791 106452 105650 105869 104933 106747 105668 105644 105942 106086
104811 106853 106514 105659 105706 106114 104838 106575 105685 105863
105038 106811 105622 105663 105985 105744 104968 106844 106774 105585
105668 106151 104869 106641 105629 105810 105662 105650 105744 105858
105604 105651 105807 106138 104901 106855 106700 105666 105680 105881
105045 106827 105655 105724 104998 106793 105733 106246 104789 105713
105661 105973 106132 104793 106853 106351 105588 105687 105578 106031
106046 104807 104933 106746 106416 105692 105985 104829 106479 105666
105739 105017 106808 105674 105889 106842 105513 105719 105989 104855
106546 105643 105642 105750 105812 105587 105890 104960 106774 105655
105721 106855 105675 105690 106042 104884 106622 105662 105864 106856
105594 105687 105756 105022 106824 105624 105619 105802 106102 104911
104982 106791 106691 105663 105890 106852 105515 105770 106199 104805
105752 106081 104811 106317 105595 106098 104936 106743 105640 105753
105724 105640 105685 105997 104825 106853 106385 105682 105637 105767
104995 106805 105723 105686 105759 105914 104847 106840 106448 105441
105659 105756 106856 105602 105743 105880 104873 106520 105595 106022
104955 106773 105665 105842 106857 105521 105715 105903 104899 106604
105668 105751 104999 106821 105598 105924 104969 106789 105676 105727
106853 105443 105679 105969 104923 106682 105639 105672 106852 105685
105647 105729 106854 105609 105649 105667 105775 106028 104942 106858
106739 105528 105791 106087 104816 105779 105998 104821 106305 105676
105720 106838 105373 105611 105846 104977 106802 105756 105950 104836
106375 105752 105876 104858 106438 105676 105689 106860 105449 105617
106039 104955 106771 105756 105824 104883 106511 105658 106851 105631
105647 105701 105787 104978 106854 106818 105611 105724 105808 104909
106597 105672 105674 106854 105376 105657 105733 106857 105534 105608
106000 104964 106787 105693 105836 104931 106678 105672 105661 106862
105457 105642 105724 106837 105317 105667 105893 104948 106738 105793
105921 105610 105942 104968 106799 105791 105928 105782 105665 105643
105916 106863 105383 105778 105658 105667 105873 106852 106846 105656
105699 106856 105536 105641 105945 104958 106771 105777 105827 105623
105664 105637 105888 104967 106862 106816 105463 105645 105669 106855
105321 105746 105789 105630 105960 104965 106787 105660 105610 106867
105392 105716 105772 105631 105834 106837 105276 105669 106848 105671
105673 106836 106855 105689 105641 105639 105783 106867 105330 105630
105943 104967 106799 105780 105863 105788 105872 105670 105639 106860
105465 105795 105884 105793 105883 105667 105666 105600 105811 106867
105399 105786 105867 105637 105784 106857 105280 105636 105911 104965
106816 105756 105647 105617 105833 106872 105342 105658 105834 105684
105676 106838 106851 105725 105791 105690 105648 106819 106859 105639
105874 106837 105256 105641 105746 106871 105291 105683 105626 106865
105402 105653 105839 105698 105755 105758 105773 105663 105626 106872
105351 105776 105793 105797 105836 105681 105734 105796 105879 105644
105840 106858 105261 105652 105828 105779 105692 105901 106841 105654
105720 106876 105305 105704 105666 106821 106854 105708 105650 106797
106863 105756 105891 105673 105726 105688 105663 106869 105354 105652
105803 105729 105848 105652 105815 106872 105273 105666 105722 105675
105728 106875 105317 105698 105785 105732 105715 105688 105737 106824
106844 105756 105758 105656 105727 105685 105779 106799 106858 105784
105809 105687 105720 105663 105715 105784 105670 105797 105867 106877
105288 105720 105693 106773 106866 105760 105910 105685 105704 105746
105667 106872 105320 105730 105920 105666 105761 105664 105701 105705
105892 105694 105801 106876 105300 105726 106827 105745 105714 106800
106848 105683 105632 105747 105737 106775 106861 105684 105828 105670
105685 105701 105738 105762 105768 106750 106868 105683 105758 105727
105782 105755 105818 105686 105684 105612 105741 105761 105859 105726
105815 106872 105304 105724 105892 105690 105655 105691 105682 105672
105904 105769 105754 106803 106830 105687 105600 105772 105769 106776
106850 105708 105763 105671 105885 105769 105804 106752 106863 105693
105586 105654 105830 105758 105817 106738 106868 105694 105595 105703
105676 105659 105877 105683 105878 105696 105547 105672 105745 105708
105744 105783 105880 105798 106806 105704 105798 105797 105880 106777
106833 105802 105827 106753 106852 105650 105875 105706 105596 105682
105648 105700 105730 105689 105530 105590 105863 105790 105826 106741
106862 105580 105834 105691 105777 105790 105564 105728 105612 105611
105708 105533 105780 105828 105828 106780 106808 105832 105838 106753
106835 105763 105704 105700 105512 105614 106013 105633 105651 105702
106003 105826 105835 106741 106852 105662 105976 105652 105934 105811
105779 105722 105552 105610 105888 105754 105632 105667 105613 105708
105490 105529 105837 105793 105710 105854 106781 105517 105863 105858
105779 106755 106810 105681 105537 105744 105858 105841 105587 106741
106834 105721 105494 105594 105709 105782 105647 105847 105778 105690
105489 105633 105629 105575 106129 105823 105709 105594 106115 105630
106075 105735 105521 105768 105622 105631 106016 105653 105702 105470
105552 105610 105879 105870 105944 106757 106783 105808 105649 105887
105849 106743 106809 105562 105863 105877 105788 105666 105494 105755
105571 105555 105772 105848 105709 105718 105474 105793 105646 105603
105673 105674 105464 105830 105652 105884 106758 105626 105576 105902
105847 106745 106782 105778 105620 105548 106185 105566 105737 105505
106174 105901 105793 105605 106142 105616 105813 105655 106091 105688
105458 105645 105867 105712 105497 105608 106023 105584 105935 105844
105655 105759 105560 105798 105657 105657 105450 105579 105826 105706
105469 105894 105853 106746 106757 105828 105658 105908 105791 105606
105703 105669 105436 105876 105721 105779 105619 105730 105504 105623
105582 105813 105677 105533 105857 105660 106190 105548 106185 105585
106171 105685 105444 105604 106144 105640 105486 105613 105834 105661
106097 105754 105564 105795 105667 105605 105846 106026 106745 105884
105788 105652 105432 105704 105869 105726 105468 105819 105691 105598
105921 105849 105675 105613 105790 105665 105417 105772 105629 105842
105666 105805 105699 105726 105513 105623 105654 105528 106166 105542
106167 105575 105815 105697 106168 105681 105431 105825 105779 105598
106163 105843 105732 105636 105537 105620 106143 105783 105822 105688
105685 105746 105582 105623 106098 105803 105721 105825 105679 105648
105701 105467 105462 105617 106016 105807 105695 105625 105899 105761
105658 105660 105433 105788 105721 105776 105721 105528 105807 105745
105622 105765 105800 105711 105790 105731 105536 106146 105675 105441
105546 106149 105785 105695 105576 106156 105630 105638 105600 106162
105767 105726 105738 105613 105780 105702 105625 106157 105779 105747
105632 106133 105694 105481 105646 105546 105777 105734 105627 106079
105790 105767 105798 105742 105745 105705 105765 105776 105658 105498
105779 105718 105632 105991 105711 105554 105762 105768 105760 105709
105623 105877 105670 105493 105553 106139 105561 105760 105736 106141
105745 105786 105585 106144 105626 105759 105725 105757 105816 105651
105610 106147 105794 105632 105814 105769 106144 105686 105529 105748
105776 105809 105739 105639 105664 105637 106129 105781 105719 105635
105737 105849 106095 105727 105753 105748 105838 105648 105604 105761
105731 105701 105603 105635 106038 105745 105775 105628 105957 105658
105587 105812 105783 105723 105842 105741 105827 105753 105894 105711
105703 105583 106139 105587 106138 105627 105866 105603 105813 105728
106134 105624 106126 105734 105841 105638 105785 105730 106115 105670
105614 105630 105785 105639 106099 105715 105909 105711 105805 105755
105764 105741 105914 105636 106076 105682 105679 105638 105728 105778
105632 105801 105752 106041 105730 105832 105807 105731 105705 105895
105622 105993 105728 105791 105729 105954 105646 105706 105692 105768
105721 105912 105762 105756 105621 106131 105621 106126 105619 105937
105626 106114 105637 106097 105651 105722 105641 106078 105736 105813
105700 105962 105622 105882 105693 105861 105638 105732 105754 105743
105973 106058 105762 105734 105635 106038 105757 105736 105656 105715
105892 105774 105633 105842 105627 105741 105753 106016 105710 106003
105689 105942 105616 105991 105646 105825 105722 105796 105711 105963
105666 105846 105614 105963 105661 106099 105658 105737 106094 105725
105745 105707 105860 105653 106079 105713 105755 105651 105653 105835
106058 105685 106001 105713 106014 105645 106036 105671 105698 105764
105921 105618 105937 105640 106016 105699 105932 105687 105786 105648
105871 105637 105998 105632 105920 105698 106034 105628 105983 105680
105830 105674 105987 105697 105995 105741 105769 105645 105915 105709
105787 105622 105971 105647 105925 105678 105792 105678 105890 105622
105960 105693 106043 105688 105656 105793 106038 105680 106031 105675
106025 105700 106037 105650 105926 105660 106009 105647 105981 105677
105956 105645 105992 105626 105649 105808 105953 105642 105976 105645
105952 105795 105642 105964 105651 105848 105751 105825 105623 105953
105691 106053 105703 105829 105673 106013 105653 106026 105635 105955
105662 105814 105652 105907 105633 105988 105631 105961 105633 105950
105639 105802 105676 106050 105668 106055 105633 105948 105710 105972
105704 105969 105650 105977 105636 105815 105647 105972 105685 105962
105622 106024 105661 105954 105800 105844 105638 105951 105642 105946
105745 105860 105636 105858 105692 105842 105644 105941 105646 105999
105668 106066 105648 105937 105639 105655 105811 106026 105638 105960
105620 106050 105645 105626 105922 105935 105640 105797 105630 106022
105645 105975 105648 105936 105635 105638 105819 106059 105823 105626
105765 105863 106064 105612 105988 105651 105940 105708 105864 105657
105994 105715 105905 105710 105904 105610 106042 105689 105902 105665
105831 105661 105625 105874 105902 105658 105948 105643 105904 105644
105799 105654 106013 105646 105908 105616 106066 105596 106036 105674
105961 105592 106052 105654 105642 105798 105913 105599 105943 105659
105757 105828 105919 105641 105690 105867 106028 105682 105979 105636
105837 105643 105857 105670 105926 105580 106055 105573 106002 105580
106053 105620 105821 105677 105936 105672 105998 105616 105609 105899
106035 105711 105621 105800 105856 105707 105856 105686 105858 105658
105863 105686 105948 105641 105871 105548 106035 105555 106048 105667
105628 105817 106013 105759 105647 105573 105961 105881 105665 105847
105593 106034 105599 105883 105694 105964 105660 105892 105566 105864
105616 105865 105674 105657 106020 105904 105699 105566 105829 105982
105518 106037 105537 106005 105555 106027 105693 105918 105584 105920
105582 105819 105694 105630 106018 105998 105705 105934 105679 105804
105703 105834 105698 105576 105898 105835 105677 105589 105845 105837
105502 106020 105650 105714 105952 105842 105499 105518 105917 106017
105543 105968 105636 105685 106007 105850 105500 105883 105609 106008
105647 105860 105716 105971 105573 105887 105665 105873 105510 105847
105674 106007 105460 106007 105686 105889 105505 105996 105712 105988
105545 105995 105525 105842 105545 105930 105752 105712 105908 105609
105893 105512 105965 105651 105998 105705 106000 105465 105953 105726
105930 105520 105865 105459 105996 105699 105840 105454 105449 105899
105984 105691 105510 105964 105839 105667 105839 105735 105954 105642
105841 105700 106004 105631 105637 105983 105843 105507 105896 105452
105861 105645 105849 105734 105976 105667 105859 105696 105862 105474
105979 105412 105977 105561 105987 105698 105445 105857 105997 105481
106016 105491 105929 105691 105875 105727 105561 105968 105992 105435
105966 105721 105897 105435 105871 105688 105982 105719 106000 105411
105898 105736 105420 105971 105925 105472 105954 105443 105958 105696
105862 105687 105390 105862 105859 105428 105895 105655 105856 105743
105953 105717 105997 105802 105623 105851 105682 105642 105963 105965
105619 105535 106044 105846 105638 105363 105858 105845 105466 106024
105740 105977 105438 105962 105395 105955 105658 105431 105922 105850
105722 105985 105418 105947 105612 105950 105685 105731 105993 105864
105347 105868 105378 105879 105716 105888 105734 105967 105396 105956
105721 105427 105944 105996 105723 105887 105327 105853 105732 105596
106016 105918 105490 105942 105349 105891 105514 106046 105682 105886
105668 105882 105739 105949 105722 105730 105452 105988 105949 105987
105622 105874 105588 105284 105853 105865 105593 105854 105403 105953
105401 105905 105372 105919 105732 105422 105944 105975 105613 105846
105732 105970 105639 105846 105672 105937 105262 105865 105335 105853
105723 105989 105668 105776 105858 105641 105925 105548 106012 105382
105944 105695 105755 105263 105843 105950 105881 105395 105950 105484
105999 105710 105987 105281 105892 105577 105934 105431 105926 105709
105913 105205 105849 105769 105933 105709 105366 105857 105973 105656
105896 105715 105946 105641 105892 105604 105883 105372 105955 105578
105870 105319 105925 105496 105939 105587 105857 105657 105790 105705
105277 105831 105972 105194 105868 105559 105915 105611 105846 105718
105951 105740 105494 105964 105925 105634 105844 105445 105928 105692
105983 105193 105836 105655 105855 105339 105953 105429 105951 105741
105930 105229 105388 105862 105901 105671 105879 105674 105676 105927
105978 105139 105850 105305 105819 105675 105911 105645 105780 105917
105545 105773 105665 105960 105367 105480 105873 105963 105676 105944
105630 105277 105941 105616 105583 105210 105818 105594 105936 105564
105433 105896 105145 105876 105533 105660 105970 105385 105856 105555
105658 105936 105779 105913 105125 105834 105615 105317 105809 105645
105981 105315 105968 105630 105494 105195 105918 105952 105639 105915
105231 105794 105636 105740 105089 105516 105619 105853 105919 105629
105449 105737 105974 105402 105818 105631 105357 105829 105136 105809
105692 105903 105255 105961 105390 105970 105624 105954 105626 105117
105888 105627 105679 105932 105614 105304 105796 105569 105570 105552
105066 105830 105607 105236 105770 105631 105752 105903 105929 105548
105483 105314 105983 105595 105414 105585 105187 105939 105590 105562