#           y             T         TMean   TPrime2Mean           U_x           U_y           U_z       UMean_x       UMean_y       UMean_z UPrime2Mea... UPrime2Mea... UPrime2Mea... UPrime2Mea... UPrime2Mea... UPrime2Mea...            O2           H2O          C3H8             p         pMean   pPrime2Mean           CO2
         0.02       1004.37       335.368       39584.9       19.5791       7.13348             0       21.7177     -0.451961             0       38.8168      -3.34342             0       22.7048             0             0     0.0264896     0.0397036      0.477829        109100        103224        659316     0.0727445
    0.0201677        967.96       333.924       37963.3       19.5968       7.29872             0       21.7347     -0.435858             0       38.7021      -2.69983             0       23.0786             0             0     0.0323391     0.0357357      0.493069        109098        103224        660120     0.0654745
    0.0203353       931.546        332.48       36341.6       19.6145       7.46396             0       21.7517     -0.419754             0       38.5874      -2.05624             0       23.4523             0             0     0.0381886     0.0317678      0.508309        109097        103223        660924     0.0582046
     0.020503       895.132       331.036         34720       19.6321        7.6292             0       21.7688     -0.403651             0       38.4728      -1.41266             0       23.8261             0             0     0.0440381     0.0277999      0.523549        109095        103223        661728     0.0509346
    0.0206707       858.718       329.592       33098.4       19.6498       7.79444             0       21.7858     -0.387547             0       38.3581     -0.769069             0       24.1999             0             0     0.0498875      0.023832      0.538789        109093        103222        662532     0.0436646
    0.0208383       822.304       328.148       31476.7       19.6675       7.95969             0       21.8028     -0.371444             0       38.2434     -0.125482             0       24.5737             0             0      0.055737     0.0198641       0.55403        109091        103222        663335     0.0363947
     0.021006       787.011       326.715       29869.9       19.6812       8.12584             0       21.8145     -0.354914             0       38.1339      0.526279             0       24.9494             0             0      0.061436     0.0159933      0.568928        109089        103221        664139     0.0293028
    0.0211737        781.89       325.585       28660.4       19.5874       8.31661             0       21.6829     -0.326921             0        38.163       1.39807             0       25.3759             0             0     0.0630828     0.0147379      0.574631        109083        103221        664928     0.0270026
    0.0213413       776.769       324.456         27451       19.4937       8.50739             0       21.5513     -0.298927             0       38.1921       2.26987             0       25.8025             0             0     0.0647296     0.0134825      0.580335        109077        103220        665718     0.0247024
     0.021509       771.649       323.327       26241.5       19.3999       8.69816             0       21.4198     -0.270933             0       38.2212       3.14166             0        26.229             0             0     0.0663764     0.0122271      0.586038        109070        103220        666507     0.0224023
    0.0216767       766.528       322.197       25032.1       19.3062       8.88893             0       21.2882     -0.242939             0       38.2503       4.01346             0       26.6556             0             0     0.0680233     0.0109716      0.591741        109064        103219        667296     0.0201021
    0.0218443       761.408       321.068       23822.6       19.2124        9.0797             0       21.1567     -0.214945             0       38.2794       4.88525             0       27.0821             0             0     0.0696701    0.00971622      0.597445        109058        103219        668086     0.0178019
     0.022012        757.18       319.948       22630.2       19.1115       9.26977             0       21.0142     -0.188001             0        38.303        5.7573             0       27.5118             0             0      0.071155    0.00856568      0.602776        109052        103218        668880     0.0156939
    0.0221797       764.518       318.958       21658.7       18.9169       9.45063             0        20.731     -0.174658             0       38.2557       6.63262             0       27.9822             0             0     0.0705424    0.00877417      0.603293        109045        103218        669732     0.0160759
    0.0223473       771.856       317.968       20687.2       18.7223       9.63149             0       20.4477     -0.161314             0       38.2085       7.50795             0       28.4527             0             0     0.0699298    0.00898266       0.60381        109038        103218        670584     0.0164579
     0.022515       779.194       316.978       19715.7       18.5277       9.81236             0       20.1645     -0.147971             0       38.1612       8.38327             0       28.9231             0             0     0.0693171    0.00919115      0.604327        109031        103217        671437     0.0168399
    0.0226827       786.532       315.988       18744.2       18.3331       9.99322             0       19.8812     -0.134627             0       38.1139        9.2586             0       29.3935             0             0     0.0687045    0.00939964      0.604844        109024        103217        672289     0.0172219
    0.0228504        793.87       314.997       17772.7       18.1385       10.1741             0        19.598     -0.121284             0       38.0667       10.1339             0       29.8639             0             0     0.0680918    0.00960813      0.605362        109017        103216        673141     0.0176039
     0.023018       801.462       314.023       16821.9       17.9301       10.3605             0       19.3026     -0.111259             0       37.9945       10.9851             0       30.3539             0             0     0.0673856    0.00987576      0.605679        109010        103216        673996     0.0180942
    0.0231857       811.163       313.183       16042.9       17.6068       10.5932             0       18.9068     -0.128797             0       37.7155       11.6356             0       31.0057             0             0     0.0659016     0.0106347      0.604337        109001        103215        674871     0.0194847
    0.0233534       820.864       312.343       15263.9       17.2836       10.8259             0        18.511     -0.146336             0       37.4365        12.286             0       31.6575             0             0     0.0644176     0.0113936      0.602995        108992        103215        675746     0.0208752
     0.023521       830.565       311.502       14484.9       16.9603       11.0587             0       18.1151     -0.163874             0       37.1574       12.9365             0       32.3094             0             0     0.0629337     0.0121525      0.601653        108983        103215        676621     0.0222656
    0.0236887       840.266       310.662       13705.9        16.637       11.2914             0       17.7193     -0.181413             0       36.8784        13.587             0       32.9612             0             0     0.0614497     0.0129114      0.600311        108974        103214        677495     0.0236561
    0.0238564       849.967       309.822       12926.9       16.3138       11.5241             0       17.3235     -0.198951             0       36.5994       14.2374             0       33.6131             0             0     0.0599657     0.0136703       0.59897        108965        103214        678370     0.0250465
     0.024024       858.696       308.996       12164.7       15.9711       11.7628             0       16.9271     -0.222086             0       36.3503       14.8392             0       34.2982             0             0      0.058517     0.0144192      0.597578        108956        103213        679250     0.0264186
    0.0241917       861.617       308.257       11502.4       15.5119       12.0378             0       16.5272     -0.278681             0       36.2804       15.1499             0       35.1824             0             0     0.0572784     0.0151081      0.595888        108948        103213        680161     0.0276809
    0.0243594       864.538       307.518       10840.2       15.0527       12.3127             0       16.1273     -0.335276             0       36.2104       15.4606             0       36.0665             0             0     0.0560399     0.0157971      0.594199        108940        103212        681071     0.0289432
     0.024527       867.459        306.78       10177.9       14.5936       12.5876             0       15.7274     -0.391871             0       36.1405       15.7713             0       36.9507             0             0     0.0548013      0.016486      0.592509        108931        103212        681981     0.0302054
    0.0246947       870.381       306.041       9515.63       14.1344       12.8625             0       15.3275     -0.448466             0       36.0705        16.082             0       37.8349             0             0     0.0535628     0.0171749      0.590819        108923        103211        682892     0.0314677
    0.0248624       873.302       305.302       8853.36       13.6752       13.1375             0       14.9276     -0.505062             0       36.0006       16.3926             0       38.7191             0             0     0.0523243     0.0178639       0.58913        108915        103211        683802       0.03273
      0.02503        873.92       304.572        8211.3       13.2142       13.4116             0       14.5434     -0.567481             0       35.9203       16.6658             0       39.6478             0             0     0.0513452      0.018447      0.587399        108907        103210        684740     0.0337983
    0.0251977       863.986       303.882       7661.87       12.7446       13.6821             0       14.2309     -0.656596             0       35.7927        16.767             0       40.7811             0             0     0.0515555     0.0185449      0.585477        108898        103210        685808     0.0339777
    0.0253654       854.052       303.193       7112.43        12.275       13.9525             0       13.9184     -0.745711             0       35.6652       16.8682             0       41.9144             0             0     0.0517658     0.0186428      0.583556        108890        103209        686875     0.0341571
     0.025533       844.117       302.503          6563       11.8054        14.223             0       13.6058     -0.834827             0       35.5376       16.9694             0       43.0476             0             0     0.0519761     0.0187407      0.581635        108881        103208        687943     0.0343365
    0.0257007       834.183       301.813       6013.56       11.3358       14.4935             0       13.2933     -0.923942             0         35.41       17.0706             0       44.1809             0             0     0.0521863     0.0188386      0.579714        108872        103207        689011     0.0345159
    0.0258684       824.249       301.124       5464.13       10.8662       14.7639             0       12.9808      -1.01306             0       35.2824       17.1718             0       45.3142             0             0     0.0523966     0.0189366      0.577793        108863        103206        690078     0.0346953
     0.026036       811.801       300.463       4955.19       10.4333       15.0066             0       12.6802      -1.10588             0        35.056       17.2421             0       46.4913             0             0     0.0530938     0.0188985      0.575151        108854        103205        691186     0.0346255
    0.0262037        790.17       299.909       4594.16       10.1341       15.1479             0       12.4234      -1.21228             0       34.4682       17.1991             0       47.8285             0             0     0.0555696     0.0183636      0.569877        108843        103204        692438     0.0336455
    0.0263714       768.539       299.355       4233.13       9.83501       15.2891             0       12.1666      -1.31867             0       33.8805       17.1562             0       49.1657             0             0     0.0580454     0.0178287      0.564602        108832        103203        693691     0.0326655
     0.026539       746.909       298.801        3872.1       9.53587       15.4303             0       11.9097      -1.42506             0       33.2928       17.1133             0       50.5029             0             0     0.0605211     0.0172938      0.559328        108821        103202        694944     0.0316856
    0.0267067       725.278       298.247       3511.07       9.23674       15.5716             0       11.6529      -1.53145             0       32.7051       17.0704             0       51.8402             0             0     0.0629969      0.016759      0.554053        108810        103201        696197     0.0307056
    0.0268744       703.647       297.693       3150.04       8.93761       15.7128             0        11.396      -1.63784             0       32.1173       17.0274             0       53.1774             0             0     0.0654727     0.0162241      0.548779        108799        103199        697450     0.0297256
     0.027042       681.012       297.186        2832.5       8.70054       15.8209             0       11.1334      -1.74528             0       31.5122       16.9468             0        54.554             0             0     0.0685794     0.0155871      0.541809        108788        103198        698723     0.0285585
    0.0272097       655.374       296.819       2644.94       8.64894         15.83             0       10.8534      -1.85586             0       30.8551       16.7532             0       56.0484             0             0     0.0735713     0.0146451      0.529775        108774        103197        700056     0.0268326
    0.0273774       629.735       296.451       2457.37       8.59734       15.8391             0       10.5734      -1.96643             0       30.1979       16.5597             0       57.5428             0             0     0.0785633     0.0137031      0.517741        108761        103195        701390     0.0251066
     0.027545       604.097       296.084        2269.8       8.54574       15.8483             0       10.2935      -2.07701             0       29.5408       16.3661             0       59.0372             0             0     0.0835552     0.0127611      0.505707        108747        103194        702724     0.0233807
    0.0277127       578.459       295.716       2082.23       8.49414       15.8574             0       10.0135      -2.18759             0       28.8837       16.1726             0       60.5316             0             0     0.0885471     0.0118191      0.493673        108734        103192        704057     0.0216548
    0.0278804       552.821       295.349       1894.66       8.44254       15.8665             0        9.7335      -2.29817             0       28.2265       15.9791             0       62.0259             0             0     0.0935391     0.0108771      0.481639        108721        103191        705391     0.0199288
     0.028048       528.894       295.017       1732.12       8.45281        15.881             0       9.44994      -2.41031             0       27.5957       15.7557             0       63.5275             0             0     0.0987645    0.00996161      0.468317        108706        103189        706699     0.0182515
    0.0282157       509.224       294.775       1631.91        8.6171       15.9091             0       9.15743      -2.52633             0       27.0303       15.4578             0        65.047             0             0      0.104571    0.00911228       0.45179        108688        103188        707944     0.0166954
    0.0283834       489.555       294.532       1531.71        8.7814       15.9372             0       8.86493      -2.64236             0       26.4648         15.16             0       66.5665             0             0      0.110378    0.00826294      0.435263        108670        103186        709189     0.0151392
    0.0285511       469.885       294.289        1431.5        8.9457       15.9652             0       8.57242      -2.75839             0       25.8994       14.8622             0        68.086             0             0      0.116184     0.0074136      0.418736        108652        103185        710434     0.0135831
    0.0287187       450.216       294.046       1331.29       9.10999       15.9933             0       8.27992      -2.87442             0        25.334       14.5644             0       69.6054             0             0      0.121991    0.00656427      0.402209        108634        103183        711678      0.012027
    0.0288864       430.546       293.804       1231.08       9.27429       16.0214             0       7.98741      -2.99045             0       24.7686       14.2666             0       71.1249             0             0      0.127798    0.00571493      0.385683        108615        103181        712923     0.0104708
    0.0290541        413.87       293.582       1142.83       9.47427       16.0893             0       7.69619      -3.10763             0       24.2431       13.9469             0       72.5939             0             0      0.133211    0.00499246      0.369564        108597        103180        714073    0.00914712
    0.0292217       403.484       293.402       1079.71       9.74925        16.241             0       7.40765      -3.22726             0       23.8015       13.5809             0       73.9565             0             0      0.137797    0.00453666      0.354302        108577        103178        715024      0.008312
    0.0293894       393.098       293.223       1016.59       10.0242       16.3927             0        7.1191      -3.34689             0       23.3598        13.215             0       75.3192             0             0      0.142384    0.00408085      0.339041        108557        103177        715975    0.00747688
    0.0295571       382.712       293.044       953.468       10.2992       16.5444             0       6.83056      -3.46651             0       22.9182       12.8491             0       76.6819             0             0       0.14697    0.00362504      0.323779        108537        103175        716926    0.00664176
    0.0297247       372.327       292.865       890.348       10.5742       16.6961             0       6.54202      -3.58614             0       22.4766       12.4831             0       78.0446             0             0      0.151556    0.00316924      0.308518        108517        103174        717877    0.00580664
    0.0298924       361.941       292.686       827.227       10.8492       16.8478             0       6.25348      -3.70576             0        22.035       12.1172             0       79.4073             0             0      0.156143    0.00271343      0.293256        108497        103172        718828    0.00497152
    0.0300601       353.548        292.52       771.471       11.1251       17.0363             0       5.96941      -3.82496             0        21.672       11.7378             0       80.6612             0             0      0.160204    0.00234852      0.279348        108479        103171        719635    0.00430293
    0.0302277       348.727       292.379        728.91       11.4027       17.2907             0       5.69333      -3.94339             0       21.4498       11.3342             0       81.7203             0             0      0.163322    0.00214646      0.267862        108465        103170        720183    0.00393271
    0.0303954       343.905       292.237       686.349       11.6803       17.5452             0       5.41726      -4.06182             0       21.2277       10.9306             0       82.7794             0             0      0.166441    0.00194439      0.256376        108450        103169        720732    0.00356249
    0.0305631       339.084       292.096       643.787       11.9579       17.7996             0       5.14119      -4.18025             0       21.0055       10.5271             0       83.8385             0             0       0.16956    0.00174233       0.24489        108435        103167        721280    0.00319227
    0.0307307       334.263       291.955       601.226       12.2355       18.0541             0       4.86511      -4.29868             0       20.7834       10.1235             0       84.8976             0             0      0.172679    0.00154026      0.233405        108421        103166        721829    0.00282205
    0.0308984       329.441       291.813       558.664       12.5131       18.3085             0       4.58904      -4.41711             0       20.5613        9.7199             0       85.9567             0             0      0.175798     0.0013382      0.221919        108406        103165        722377    0.00245183
    0.0310661       325.622       291.683        521.69       12.7349       18.5817             0       4.31931      -4.53269             0       20.4322          9.32             0        86.871             0             0      0.178527    0.00117851      0.211693        108393        103164        722769    0.00215924
    0.0312337       323.345       291.572       493.307        12.871       18.8838             0       4.05935      -4.64386             0       20.4462       8.92574             0       87.5627             0             0      0.180657    0.00108398      0.203404        108383        103163        722920    0.00198606
    0.0314014       321.067        291.46       464.924       13.0071       19.1859             0       3.79938      -4.75503             0       20.4603       8.53148             0       88.2545             0             0      0.182787   0.000989462      0.195114        108373        103162        723070    0.00181288
    0.0315691        318.79       291.348       436.541       13.1432       19.4879             0       3.53941       -4.8662             0       20.4743       8.13723             0       88.9462             0             0      0.184916   0.000894939      0.186825        108363        103161        723220     0.0016397
    0.0317367       316.512       291.236       408.158       13.2793         19.79             0       3.27945      -4.97737             0       20.4884       7.74297             0       89.6379             0             0      0.187046   0.000800417      0.178536        108353        103160        723371    0.00146651
    0.0319044       314.234       291.125       379.775       13.4154       20.0921             0       3.01948      -5.08854             0       20.5024       7.34871             0       90.3297             0             0      0.189176   0.000705895      0.170247        108342        103159        723521    0.00129333
    0.0320721       312.436       291.024       355.738       13.4604       20.3808             0       2.76675      -5.19487             0       20.5951       6.97526             0       90.8646             0             0      0.191122   0.000629598      0.162569        108334        103158        723545    0.00115354
    0.0322397       311.272       290.939       337.465       13.3846       20.6517             0       2.52362      -5.29477             0       20.7923       6.62939             0       91.1916             0             0      0.192824   0.000577475      0.155703        108328        103158        723399    0.00105804
    0.0324074       310.108       290.854       319.193       13.3088       20.9227             0       2.28048      -5.39467             0       20.9894       6.28352             0       91.5185             0             0      0.194527   0.000525352      0.148837        108321        103157        723254   0.000962543
    0.0325751       308.944       290.769        300.92        13.233       21.1937             0       2.03735      -5.49457             0       21.1865       5.93766             0       91.8455             0             0      0.196229    0.00047323       0.14197        108315        103156        723109   0.000867045
    0.0327427       307.781       290.684       282.647       13.1572       21.4647             0       1.79421      -5.59448             0       21.3836       5.59179             0       92.1724             0             0      0.197931   0.000421107      0.135104        108308        103156        722964   0.000771546
    0.0329104       306.617       290.599       264.374       13.0814       21.7357             0       1.55108      -5.69438             0       21.5807       5.24592             0       92.4994             0             0      0.199634   0.000368984      0.128237        108302        103155        722819   0.000676048
    0.0330781       305.714       290.525       249.223       12.9163        21.978             0       1.31741       -5.7883             0       21.7864       4.96365             0       92.6545             0             0      0.201145   0.000327793       0.12209        108297        103154        722613   0.000600579
    0.0332457       305.111       290.462       237.655       12.6487       22.1873             0       1.09459      -5.87537             0        22.002       4.75435             0       92.6124             0             0      0.202437   0.000299146      0.116766        108293        103154        722339   0.000548092
    0.0334134       304.508         290.4       226.086       12.3811       22.3967             0      0.871781      -5.96244             0       22.2177       4.54506             0       92.5703             0             0      0.203729     0.0002705      0.111443        108289        103154        722065   0.000495606
    0.0335811       303.905       290.337       214.517       12.1136        22.606             0      0.648969      -6.04951             0       22.4333       4.33576             0       92.5282             0             0      0.205021   0.000241853       0.10612        108285        103153        721791   0.000443119
    0.0337487       303.302       290.275       202.948        11.846       22.8154             0      0.426156      -6.13657             0       22.6489       4.12647             0       92.4861             0             0      0.206313   0.000213206      0.100796        108281        103153        721517   0.000390633
    0.0339164       302.698       290.213       191.379       11.5785       23.0247             0      0.203343      -6.22364             0       22.8645       3.91717             0        92.444             0             0      0.207605   0.000184559      0.095473        108277        103153        721243   0.000338146
    0.0340841       302.514       290.159       181.944        11.245        23.212             0   -0.00749802       -6.3033             0       23.0302       3.80341             0       92.2216             0             0      0.208571   0.000164171     0.0914846        108273        103153        720970   0.000300792
    0.0342518       302.744       290.114       174.631        10.846       23.3773             0     -0.206439      -6.37559             0       23.1463        3.7846             0       91.8201             0             0      0.209212   0.000151993     0.0888231        108270        103153        720698    0.00027848
    0.0344194       302.975       290.069       167.318        10.447       23.5426             0      -0.40538      -6.44788             0       23.2624        3.7658             0       91.4186             0             0      0.209852   0.000139815     0.0861616        108266        103153        720426   0.000256168
    0.0345871       303.206       290.024       160.005       10.0481        23.708             0     -0.604322      -6.52017             0       23.3785         3.747             0       91.0171             0             0      0.210493   0.000127638     0.0835002        108263        103153        720153   0.000233856
    0.0347548       303.437       289.979       152.691       9.64907       23.8733             0     -0.803263      -6.59246             0       23.4946        3.7282             0       90.6156             0             0      0.211134    0.00011546     0.0808387        108259        103153        719881   0.000211544
    0.0349224       303.668       289.934       145.378       9.25008       24.0386             0       -1.0022      -6.66475             0       23.6107        3.7094             0       90.2141             0             0      0.211775   0.000103282     0.0781772        108256        103153        719609   0.000189232
    0.0350901        304.57       289.895       139.502       8.80834        24.186             0      -1.19013      -6.72724             0       23.6773       3.77337             0       89.6271             0             0      0.212158   9.51454e-05     0.0765974        108252        103153        719390   0.000174324
    0.0352578       306.051       289.863       134.865       8.32978       24.3179             0      -1.36857       -6.7813             0       23.7013       3.90862             0       88.8804             0             0      0.212318   9.04886e-05     0.0759489        108247        103153        719217   0.000165792