#           y             T         TMean   TPrime2Mean           U_x           U_y           U_z       UMean_x       UMean_y       UMean_z UPrime2Mea... UPrime2Mea... UPrime2Mea... UPrime2Mea... UPrime2Mea... UPrime2Mea...            O2           H2O          C3H8             p         pMean   pPrime2Mean           CO2
         0.04       346.899       289.017       29.2058      -5.82285       24.8559             0      -4.53592      -6.52213             0       21.4444       10.0424             0       51.5917             0             0      0.205388   0.000214631      0.104802        108163        103187        711062   0.000393245
     0.039975       346.441       289.019       29.2938      -5.76288       24.8759             0      -4.53101      -6.52802             0       21.4668       9.97795             0       51.8139             0             0      0.205572   0.000210782      0.104041        108162        103187        711003   0.000386192
    0.0399499       345.984        289.02       29.3819       -5.7029       24.8958             0       -4.5261      -6.53391             0       21.4891       9.91348             0        52.036             0             0      0.205756   0.000206932      0.103281        108162        103187        710943   0.000379138
    0.0399249       345.526       289.022       29.4699      -5.64293       24.9158             0      -4.52119       -6.5398             0       21.5114       9.84901             0       52.2581             0             0       0.20594   0.000203083      0.102521        108161        103187        710883   0.000372085
    0.0398999       345.068       289.023        29.558      -5.58296       24.9357             0      -4.51627      -6.54569             0       21.5337       9.78454             0       52.4802             0             0      0.206124   0.000199233       0.10176        108161        103187        710823   0.000365032
    0.0398749       344.611       289.024        29.646      -5.52299       24.9556             0      -4.51136      -6.55158             0        21.556       9.72007             0       52.7024             0             0      0.206308   0.000195383         0.101        108160        103186        710764   0.000357979
    0.0398498       344.153       289.026       29.7341      -5.46302       24.9756             0      -4.50645      -6.55747             0       21.5783        9.6556             0       52.9245             0             0      0.206492   0.000191534       0.10024        108160        103186        710704   0.000350925
    0.0398248       343.696       289.027       29.8221      -5.40304       24.9955             0      -4.50154      -6.56336             0       21.6006       9.59113             0       53.1466             0             0      0.206676   0.000187684     0.0994793        108159        103186        710644   0.000343872
    0.0397998       343.238       289.028       29.9102      -5.34307       25.0155             0      -4.49663      -6.56925             0       21.6229       9.52667             0       53.3687             0             0       0.20686   0.000183834      0.098719        108159        103186        710585   0.000336819
    0.0397748        342.78        289.03       29.9982       -5.2831       25.0354             0      -4.49172      -6.57514             0       21.6452        9.4622             0       53.5909             0             0      0.207044   0.000179985     0.0979587        108158        103186        710525   0.000329766
    0.0397497       342.323       289.031       30.0863      -5.22313       25.0554             0      -4.48681      -6.58103             0       21.6675       9.39773             0        53.813             0             0      0.207228   0.000176135     0.0971983        108157        103185        710465   0.000322713
    0.0397247       341.865       289.033       30.1743      -5.16315       25.0753             0       -4.4819      -6.58693             0       21.6898       9.33326             0       54.0351             0             0      0.207412   0.000172286      0.096438        108157        103185        710406   0.000315659
    0.0396997       341.407       289.034       30.2624      -5.10318       25.0953             0      -4.47698      -6.59282             0       21.7121       9.26879             0       54.2573             0             0      0.207596   0.000168436     0.0956776        108156        103185        710346   0.000308606
    0.0396747        340.95       289.035       30.3504      -5.04321       25.1152             0      -4.47207      -6.59871             0       21.7345       9.20432             0       54.4794             0             0       0.20778   0.000164586     0.0949173        108156        103185        710286   0.000301553
    0.0396496       340.492       289.037       30.4384      -4.98324       25.1352             0      -4.46716       -6.6046             0       21.7568       9.13985             0       54.7015             0             0      0.207964   0.000160737      0.094157        108155        103185        710227     0.0002945
    0.0396246       340.034       289.038       30.5265      -4.92327       25.1551             0      -4.46225      -6.61049             0       21.7791       9.07538             0       54.9236             0             0      0.208148   0.000156887     0.0933966        108155        103185        710167   0.000287446
    0.0395996       339.577       289.039       30.6145      -4.86329       25.1751             0      -4.45734      -6.61638             0       21.8014       9.01091             0       55.1458             0             0      0.208332   0.000153037     0.0926363        108154        103184        710107   0.000280393
    0.0395746       339.119       289.041       30.7026      -4.80332        25.195             0      -4.45243      -6.62227             0       21.8237       8.94644             0       55.3679             0             0      0.208516   0.000149188      0.091876        108154        103184        710048    0.00027334
    0.0395495       338.662       289.042       30.7906      -4.74335        25.215             0      -4.44752      -6.62816             0        21.846       8.88197             0         55.59             0             0        0.2087   0.000145338     0.0911156        108153        103184        709988   0.000266287
    0.0395245       338.204       289.044       30.8787      -4.68338       25.2349             0      -4.44261      -6.63405             0       21.8683        8.8175             0       55.8121             0             0      0.208884   0.000141489     0.0903553        108153        103184        709928   0.000259233
    0.0394995       337.746       289.045       30.9667       -4.6234       25.2549             0      -4.43769      -6.63994             0       21.8906       8.75303             0       56.0343             0             0      0.209068   0.000137639     0.0895949        108152        103184        709869    0.00025218
    0.0394745       337.289       289.046       31.0548      -4.56343       25.2748             0      -4.43278      -6.64583             0       21.9129       8.68856             0       56.2564             0             0      0.209252   0.000133789     0.0888346        108152        103183        709809   0.000245127
    0.0394494       336.831       289.048       31.1428      -4.50346       25.2948             0      -4.42787      -6.65172             0       21.9352       8.62409             0       56.4785             0             0      0.209436    0.00012994     0.0880743        108151        103183        709749   0.000238074
    0.0394244       336.373       289.049       31.2309      -4.44349       25.3147             0      -4.42296      -6.65761             0       21.9575       8.55962             0       56.7006             0             0       0.20962    0.00012609     0.0873139        108151        103183        709689   0.000231021
    0.0393994       335.916        289.05       31.3189      -4.38352       25.3347             0      -4.41805       -6.6635             0       21.9798       8.49515             0       56.9228             0             0      0.209804    0.00012224     0.0865536        108150        103183        709630   0.000223967
    0.0393744       335.458       289.052        31.407      -4.32354       25.3546             0      -4.41314       -6.6694             0       22.0022       8.43068             0       57.1449             0             0      0.209988   0.000118391     0.0857932        108150        103183        709570   0.000216914
    0.0393493       335.001       289.053        31.495      -4.26357       25.3745             0      -4.40823      -6.67529             0       22.0245       8.36621             0        57.367             0             0      0.210172   0.000114541     0.0850329        108149        103182        709510   0.000209861
    0.0393243       334.543       289.055       31.5831       -4.2036       25.3945             0      -4.40332      -6.68118             0       22.0468       8.30174             0       57.5891             0             0      0.210356   0.000110692     0.0842726        108149        103182        709451   0.000202808
    0.0392993       334.085       289.056       31.6711      -4.14363       25.4144             0      -4.39841      -6.68707             0       22.0691       8.23727             0       57.8113             0             0       0.21054   0.000106842     0.0835122        108148        103182        709391   0.000195754
    0.0392743       333.628       289.057       31.7592      -4.08365       25.4344             0      -4.39349      -6.69296             0       22.0914        8.1728             0       58.0334             0             0      0.210724   0.000102992     0.0827519        108148        103182        709331   0.000188701
    0.0392492        333.17       289.059       31.8472      -4.02368       25.4543             0      -4.38858      -6.69885             0       22.1137       8.10833             0       58.2555             0             0      0.210908   9.91428e-05     0.0819915        108147        103182        709272   0.000181648
    0.0392242       332.712        289.06       31.9353      -3.96371       25.4743             0      -4.38367      -6.70474             0        22.136       8.04386             0       58.4776             0             0      0.211092   9.52931e-05     0.0812312        108146        103181        709212   0.000174595
    0.0391992       332.255       289.061       32.0233      -3.90374       25.4942             0      -4.37876      -6.71063             0       22.1583       7.97939             0       58.6998             0             0      0.211276   9.14435e-05     0.0804709        108146        103181        709152   0.000167542
    0.0391742       331.797       289.063       32.1114      -3.84376       25.5142             0      -4.37385      -6.71652             0       22.1806       7.91492             0       58.9219             0             0       0.21146   8.75939e-05     0.0797105        108145        103181        709093   0.000160488
    0.0391491        331.34       289.064       32.1994      -3.78379       25.5341             0      -4.36894      -6.72241             0       22.2029       7.85045             0        59.144             0             0      0.211644   8.37443e-05     0.0789502        108145        103181        709033   0.000153435
    0.0391241       330.882       289.066       32.2875      -3.72382       25.5541             0      -4.36403       -6.7283             0       22.2252       7.78598             0       59.3661             0             0      0.211828   7.98946e-05     0.0781898        108144        103181        708973   0.000146382
    0.0390991       330.424       289.067       32.3755      -3.66385        25.574             0      -4.35912      -6.73419             0       22.2475       7.72151             0       59.5883             0             0      0.212012    7.6045e-05     0.0774295        108144        103181        708914   0.000139329
    0.0390741       329.967       289.068       32.4636      -3.60388        25.594             0       -4.3542      -6.74008             0       22.2699       7.65704             0       59.8104             0             0      0.212195   7.21954e-05     0.0766692        108143        103180        708854   0.000132275
     0.039049       329.509        289.07       32.5516       -3.5439       25.6139             0      -4.34929      -6.74598             0       22.2922       7.59258             0       60.0325             0             0      0.212379   6.83458e-05     0.0759088        108143        103180        708794   0.000125222
     0.039024       329.051       289.071       32.6397      -3.48393       25.6339             0      -4.34438      -6.75187             0       22.3145       7.52811             0       60.2547             0             0      0.212563   6.44962e-05     0.0751485        108142        103180        708735   0.000118169
     0.038999       328.596       289.072       32.7269       -3.4234       25.6533             0      -4.33923      -6.75764             0       22.3368       7.46444             0       60.4767             0             0      0.212743   6.07747e-05      0.074408        108142        103180        708676   0.000111351
     0.038974       328.203       289.074       32.7942      -3.34948       25.6601             0      -4.32819      -6.76056             0       22.3595       7.41999             0       60.6977             0             0      0.212805   6.01288e-05     0.0741453        108142        103180        708635   0.000110167
    0.0389489        327.81       289.075       32.8615      -3.27555       25.6669             0      -4.31716      -6.76348             0       22.3821       7.37555             0       60.9187             0             0      0.212866    5.9483e-05     0.0738825        108142        103179        708594   0.000108984
    0.0389239       327.417       289.076       32.9289      -3.20163       25.6737             0      -4.30613       -6.7664             0       22.4048       7.33111             0       61.1397             0             0      0.212928   5.88371e-05     0.0736197        108142        103179        708553   0.000107801
    0.0388989       327.024       289.077       32.9962      -3.12771       25.6805             0       -4.2951      -6.76932             0       22.4275       7.28667             0       61.3607             0             0       0.21299   5.81913e-05     0.0733569        108142        103179        708513   0.000106617
    0.0388739       326.631       289.078       33.0635      -3.05378       25.6873             0      -4.28407      -6.77224             0       22.4501       7.24222             0       61.5817             0             0      0.213052   5.75454e-05     0.0730941        108142        103179        708472   0.000105434
    0.0388488       326.238       289.079       33.1309      -2.97986       25.6941             0      -4.27304      -6.77516             0       22.4728       7.19778             0       61.8027             0             0      0.213114   5.68996e-05     0.0728313        108142        103179        708431   0.000104251
    0.0388238       325.845        289.08       33.1982      -2.90593       25.7009             0      -4.26201      -6.77808             0       22.4955       7.15334             0       62.0238             0             0      0.213176   5.62537e-05     0.0725685        108142        103179        708390   0.000103067
    0.0387988       325.452       289.081       33.2655      -2.83201       25.7076             0      -4.25098        -6.781             0       22.5182        7.1089             0       62.2448             0             0      0.213238   5.56079e-05     0.0723057        108142        103178        708349   0.000101884
    0.0387738       325.059       289.082       33.3329      -2.75809       25.7144             0      -4.23995      -6.78393             0       22.5408       7.06445             0       62.4658             0             0        0.2133    5.4962e-05     0.0720429        108142        103178        708309   0.000100701
    0.0387487       324.666       289.083       33.4002      -2.68416       25.7212             0      -4.22891      -6.78685             0       22.5635       7.02001             0       62.6868             0             0      0.213362   5.43162e-05     0.0717801        108142        103178        708268   9.95174e-05
    0.0387237       324.273       289.084       33.4675      -2.61024        25.728             0      -4.21788      -6.78977             0       22.5862       6.97557             0       62.9078             0             0      0.213424   5.36703e-05     0.0715173        108142        103178        708227   9.83341e-05
    0.0386987        323.88       289.085       33.5348      -2.53631       25.7348             0      -4.20685      -6.79269             0       22.6088       6.93113             0       63.1288             0             0      0.213486   5.30245e-05     0.0712545        108142        103178        708186   9.71508e-05
    0.0386737       323.487       289.086       33.6022      -2.46239       25.7416             0      -4.19582      -6.79561             0       22.6315       6.88668             0       63.3498             0             0      0.213548   5.23786e-05     0.0709917        108142        103177        708146   9.59674e-05
    0.0386486       323.094       289.087       33.6695      -2.38847       25.7484             0      -4.18479      -6.79853             0       22.6542       6.84224             0       63.5708             0             0       0.21361   5.17328e-05     0.0707289        108142        103177        708105   9.47841e-05
    0.0386236       322.701       289.088       33.7368      -2.31454       25.7552             0      -4.17376      -6.80145             0       22.6769        6.7978             0       63.7918             0             0      0.213672   5.10869e-05     0.0704661        108142        103177        708064   9.36008e-05
    0.0385986       322.307       289.089       33.8042      -2.24062        25.762             0      -4.16273      -6.80437             0       22.6995       6.75336             0       64.0128             0             0      0.213734   5.04411e-05     0.0702033        108142        103177        708023   9.24175e-05
    0.0385736       321.914        289.09       33.8715      -2.16669       25.7688             0       -4.1517      -6.80729             0       22.7222       6.70891             0       64.2338             0             0      0.213796   4.97952e-05     0.0699405        108142        103177        707982   9.12342e-05
    0.0385485       321.521       289.091       33.9388      -2.09277       25.7756             0      -4.14066      -6.81021             0       22.7449       6.66447             0       64.4548             0             0      0.213858   4.91494e-05     0.0696777        108142        103177        707942   9.00509e-05
    0.0385235       321.128       289.092       34.0062      -2.01885       25.7824             0      -4.12963      -6.81313             0       22.7675       6.62003             0       64.6758             0             0       0.21392   4.85035e-05     0.0694149        108142        103176        707901   8.88675e-05
    0.0384985       320.735       289.093       34.0735      -1.94492       25.7892             0       -4.1186      -6.81605             0       22.7902       6.57558             0       64.8968             0             0      0.213982   4.78577e-05     0.0691522        108142        103176        707860   8.76842e-05
    0.0384735       320.342       289.094       34.1408        -1.871        25.796             0      -4.10757      -6.81897             0       22.8129       6.53114             0       65.1178             0             0      0.214044   4.72119e-05     0.0688894        108142        103176        707819   8.65009e-05
    0.0384484       319.949       289.095       34.2082      -1.79707       25.8028             0      -4.09654       -6.8219             0       22.8356        6.4867             0       65.3388             0             0      0.214106    4.6566e-05     0.0686266        108142        103176        707779   8.53176e-05
    0.0384234       319.556       289.097       34.2755      -1.72315       25.8096             0      -4.08551      -6.82482             0       22.8582       6.44226             0       65.5598             0             0      0.214168   4.59202e-05     0.0683638        108142        103176        707738   8.41343e-05
    0.0383984       319.163       289.098       34.3428      -1.64923       25.8164             0      -4.07448      -6.82774             0       22.8809       6.39781             0       65.7808             0             0       0.21423   4.52743e-05      0.068101        108142        103175        707697    8.2951e-05
    0.0383734        318.77       289.099       34.4101       -1.5753       25.8231             0      -4.06345      -6.83066             0       22.9036       6.35337             0       66.0018             0             0      0.214292   4.46285e-05     0.0678382        108142        103175        707656   8.17676e-05
    0.0383483       318.377         289.1       34.4775      -1.50138       25.8299             0      -4.05241      -6.83358             0       22.9262       6.30893             0       66.2228             0             0      0.214354   4.39826e-05     0.0675754        108142        103175        707615   8.05843e-05
    0.0383233       317.984       289.101       34.5448      -1.42745       25.8367             0      -4.04138       -6.8365             0       22.9489       6.26449             0       66.4438             0             0      0.214416   4.33368e-05     0.0673126        108142        103175        707575    7.9401e-05
    0.0382983       317.591       289.102       34.6121      -1.35353       25.8435             0      -4.03035      -6.83942             0       22.9716       6.22004             0       66.6648             0             0      0.214478   4.26909e-05     0.0670498        108142        103175        707534   7.82177e-05
    0.0382733       317.198       289.103       34.6795      -1.27961       25.8503             0      -4.01932      -6.84234             0       22.9943        6.1756             0       66.8858             0             0       0.21454   4.20451e-05      0.066787        108142        103175        707493   7.70344e-05
    0.0382482       316.805       289.104       34.7468      -1.20568       25.8571             0      -4.00829      -6.84526             0       23.0169       6.13116             0       67.1068             0             0      0.214602   4.13992e-05     0.0665242        108142        103174        707452   7.58511e-05
    0.0382232       316.412       289.105       34.8141      -1.13176       25.8639             0      -3.99726      -6.84818             0       23.0396       6.08672             0       67.3278             0             0      0.214664   4.07534e-05     0.0662614        108142        103174        707412   7.46678e-05
    0.0381982       316.019       289.106       34.8815      -1.05783       25.8707             0      -3.98623       -6.8511             0       23.0623       6.04227             0       67.5488             0             0      0.214726   4.01075e-05     0.0659986        108142        103174        707371   7.34844e-05
    0.0381732       315.626       289.107       34.9488     -0.983911       25.8775             0       -3.9752      -6.85402             0       23.0849       5.99783             0       67.7698             0             0      0.214788   3.94617e-05     0.0657358        108142        103174        707330   7.23011e-05
    0.0381481       315.232       289.108       35.0161     -0.909987       25.8843             0      -3.96417      -6.85694             0       23.1076       5.95339             0       67.9908             0             0       0.21485   3.88158e-05      0.065473        108142        103174        707289   7.11178e-05
    0.0381231       314.839       289.109       35.0835     -0.836063       25.8911             0      -3.95313      -6.85987             0       23.1303       5.90895             0       68.2118             0             0      0.214912     3.817e-05     0.0652102        108142        103174        707248   6.99345e-05
    0.0380981       314.446        289.11       35.1508     -0.762139       25.8979             0       -3.9421      -6.86279             0        23.153        5.8645             0       68.4328             0             0      0.214973   3.75241e-05     0.0649474        108142        103173        707208   6.87512e-05
    0.0380731       314.053       289.111       35.2181     -0.688215       25.9047             0      -3.93107      -6.86571             0       23.1756       5.82006             0       68.6538             0             0      0.215035   3.68783e-05     0.0646846        108142        103173        707167   6.75679e-05
     0.038048        313.66       289.112       35.2854     -0.614291       25.9115             0      -3.92004      -6.86863             0       23.1983       5.77562             0       68.8748             0             0      0.215097   3.62324e-05     0.0644218        108142        103173        707126   6.63845e-05
     0.038023       313.267       289.113       35.3528     -0.540367       25.9183             0      -3.90901      -6.87155             0        23.221       5.73118             0       69.0958             0             0      0.215159   3.55866e-05      0.064159        108142        103173        707085   6.52012e-05
     0.037998       312.884       289.114       35.4232     -0.465819       25.9243             0      -3.89752      -6.87418             0       23.2423       5.68828             0       69.3158             0             0      0.215218   3.49958e-05     0.0639112        108142        103173        707046   6.41188e-05
     0.037973       312.611       289.116       35.5291     -0.384093       25.9214             0      -3.88072      -6.87345             0       23.2477       5.66318             0       69.5231             0             0      0.215235   3.50384e-05      0.063835        108143        103173        707020   6.41969e-05
    0.0379479       312.337       289.117        35.635     -0.302366       25.9185             0      -3.86392      -6.87273             0       23.2532       5.63809             0       69.7305             0             0      0.215253    3.5081e-05     0.0637588        108143        103172        706995   6.42749e-05
    0.0379229       312.064       289.118        35.741     -0.220639       25.9157             0      -3.84712      -6.87201             0       23.2587       5.61299             0       69.9379             0             0       0.21527   3.51236e-05     0.0636826        108143        103172        706970    6.4353e-05
    0.0378979       311.791       289.119       35.8469     -0.138913       25.9128             0      -3.83032      -6.87128             0       23.2642       5.58789             0       70.1453             0             0      0.215287   3.51662e-05     0.0636064        108144        103172        706944    6.4431e-05
    0.0378729       311.518       289.121       35.9528    -0.0571859       25.9099             0      -3.81352      -6.87056             0       23.2696       5.56279             0       70.3527             0             0      0.215305   3.52088e-05     0.0635303        108144        103172        706919   6.45091e-05
    0.0378478       311.245       289.122       36.0587     0.0245408       25.9071             0      -3.79672      -6.86984             0       23.2751        5.5377             0         70.56             0             0      0.215322   3.52514e-05     0.0634541        108144        103172        706894   6.45871e-05
    0.0378228       310.971       289.123       36.1647      0.106267       25.9042             0      -3.77991      -6.86911             0       23.2806        5.5126             0       70.7674             0             0       0.21534    3.5294e-05     0.0633779        108145        103172        706868   6.46652e-05
    0.0377978       310.698       289.125       36.2706      0.187994       25.9013             0      -3.76311      -6.86839             0        23.286        5.4875             0       70.9748             0             0      0.215357   3.53366e-05     0.0633017        108145        103172        706843   6.47432e-05
    0.0377728       310.425       289.126       36.3765      0.269721       25.8985             0      -3.74631      -6.86767             0       23.2915       5.46241             0       71.1822             0             0      0.215375   3.53792e-05     0.0632255        108145        103171        706818   6.48213e-05
    0.0377477       310.152       289.127       36.4824      0.351448       25.8956             0      -3.72951      -6.86694             0        23.297       5.43731             0       71.3896             0             0      0.215392   3.54218e-05     0.0631493        108146        103171        706792   6.48993e-05
    0.0377227       309.879       289.128       36.5883      0.433174       25.8927             0      -3.71271      -6.86622             0       23.3025       5.41221             0       71.5969             0             0      0.215409   3.54644e-05     0.0630732        108146        103171        706767   6.49774e-05