#           y             T         TMean   TPrime2Mean           U_x           U_y           U_z       UMean_x       UMean_y       UMean_z UPrime2Mea... UPrime2Mea... UPrime2Mea... UPrime2Mea... UPrime2Mea... UPrime2Mea...            O2           H2O          C3H8             p         pMean   pPrime2Mean           CO2
         0.03       1897.86       323.821       51824.7       50.6237       10.7855             0       5.00237        1.3553             0        52.747        4.5418             0        51.835             0             0   3.00097e-10     0.0886628      0.089918        107730        103225        650574      0.162447
    0.0301702       1897.92       323.661       51610.7       50.8109       11.0837             0       4.97391       1.39806             0       53.0497       4.77067             0       51.8426             0             0   3.09093e-10     0.0886985     0.0895532        107728        103225        650129      0.162512
    0.0303403       1897.97       323.501       51396.8        50.998        11.382             0       4.94544       1.44081             0       53.3524       4.99954             0       51.8502             0             0    3.1809e-10     0.0887342     0.0891883        107727        103225        649685      0.162578
    0.0305105       1898.02        323.34       51182.8       51.1852       11.6802             0       4.91698       1.48356             0       53.6551       5.22842             0       51.8578             0             0   3.27086e-10     0.0887699     0.0888235        107726        103226        649241      0.162643
    0.0306807       1898.08        323.18       50968.8       51.3723       11.9785             0       4.88851       1.52632             0       53.9578       5.45729             0       51.8654             0             0   3.36082e-10     0.0888055     0.0884587        107725        103226        648796      0.162708
    0.0308509       1898.13        323.02       50754.8       51.5595       12.2767             0       4.86004       1.56907             0       54.2605       5.68616             0       51.8731             0             0   3.45079e-10     0.0888412     0.0880938        107723        103226        648352      0.162774
     0.031021       1898.18       322.858       50537.1       51.6993       12.5692             0       4.83285       1.61205             0        54.516       5.90678             0       51.8671             0             0   3.52858e-10     0.0888762     0.0877364        107722        103227        647909      0.162838
    0.0311912       1898.14        322.68       50292.7       51.5035        12.821             0       4.81466       1.65659             0       54.4362       6.06879             0       51.7646             0             0   3.52003e-10     0.0889057     0.0874315        107719        103227        647479      0.162892
    0.0313614        1898.1       322.503       50048.3       51.3076       13.0728             0       4.79646       1.70113             0       54.3563       6.23079             0       51.6621             0             0   3.51148e-10     0.0889353     0.0871267        107717        103228        647049      0.162946
    0.0315315       1898.07       322.326       49803.9       51.1117       13.3245             0       4.77827       1.74567             0       54.2765        6.3928             0       51.5595             0             0   3.50294e-10     0.0889649     0.0868218        107714        103228        646619         0.163
    0.0317017       1898.03       322.148       49559.4       50.9159       13.5763             0       4.76008       1.79021             0       54.1967       6.55481             0        51.457             0             0   3.49439e-10     0.0889945      0.086517        107711        103228        646189      0.163054
    0.0318719       1897.99       321.971         49315         50.72        13.828             0       4.74188       1.83476             0       54.1169       6.71682             0       51.3545             0             0   3.48584e-10      0.089024     0.0862121        107709        103229        645759      0.163109
     0.032042       1897.95       321.788       49062.1       50.4738       14.0727             0       4.72632       1.87922             0       54.0294       6.87572             0       51.2283             0             0   3.44464e-10     0.0890565     0.0858773        107706        103229        645343      0.163168
    0.0322122       1897.91       321.592       48783.1       50.0743       14.2957             0       4.71877       1.92344             0       53.9187       7.02513             0       51.0298             0             0   3.30392e-10     0.0890978      0.085451        107703        103230        644971      0.163244
    0.0323824       1897.86       321.396       48504.1       49.6748       14.5188             0       4.71123       1.96765             0       53.8079       7.17454             0       50.8313             0             0   3.16321e-10     0.0891391     0.0850246        107699        103231        644598      0.163319
    0.0325526       1897.81       321.199       48225.1       49.2753       14.7418             0       4.70368       2.01187             0       53.6972       7.32395             0       50.6328             0             0   3.02249e-10     0.0891804     0.0845983        107696        103231        644226      0.163395
    0.0327227       1897.76       321.003       47946.1       48.8758       14.9648             0       4.69614       2.05609             0       53.5865       7.47336             0       50.4343             0             0   2.88178e-10     0.0892217      0.084172        107692        103232        643854      0.163471
    0.0328929       1897.72       320.806       47667.1       48.4763       15.1879             0       4.68859        2.1003             0       53.4757       7.62277             0       50.2357             0             0   2.74106e-10      0.089263     0.0837457        107689        103232        643482      0.163546
    0.0330631       1897.68         320.6       47370.3       48.0398       15.3864             0       4.68331       2.14363             0       53.4322       7.77033             0       50.0063             0             0   2.58503e-10      0.089309     0.0832706        107686        103233        643137      0.163631
    0.0332332       1897.67       320.379       47043.2       47.5406       15.5433             0       4.68189       2.18543             0       53.5027       7.91473             0       49.7243             0             0   2.40299e-10     0.0893631     0.0827126        107683        103234        642836       0.16373
    0.0334034       1897.66       320.158       46716.1       47.0414       15.7003             0       4.68047       2.22722             0       53.5733       8.05914             0       49.4423             0             0   2.22094e-10     0.0894173     0.0821547        107680        103234        642536      0.163829
    0.0335736       1897.65       319.937         46389       46.5422       15.8572             0       4.67905       2.26902             0       53.6438       8.20354             0       49.1603             0             0    2.0389e-10     0.0894714     0.0815967        107677        103235        642236      0.163928
    0.0337437       1897.64       319.715       46061.9        46.043       16.0141             0       4.67763       2.31082             0       53.7144       8.34795             0       48.8783             0             0   1.85685e-10     0.0895255     0.0810388        107674        103236        641936      0.164027
    0.0339139       1897.63       319.494       45734.7       45.5438       16.1711             0       4.67621       2.35262             0        53.785       8.49235             0       48.5963             0             0   1.67481e-10     0.0895796     0.0804808        107671        103236        641636      0.164127
    0.0340841       1897.62       319.261       45384.7       45.0138       16.3078             0       4.67691       2.39218             0       53.9771       8.63519             0       48.2753             0             0   1.53209e-10      0.089638     0.0798788        107669        103237        641370      0.164234
    0.0342543       1897.61       319.016       45011.2       44.4523       16.4237             0        4.6798       2.42946             0       54.2939       8.77642             0       47.9144             0             0   1.42965e-10     0.0897009     0.0792318        107670        103238        641139      0.164349
    0.0344244        1897.6       318.771       44637.6       43.8908       16.5397             0       4.68269       2.46673             0       54.6106       8.91766             0       47.5536             0             0   1.32721e-10     0.0897637     0.0785848        107670        103239        640908      0.164464
    0.0345946       1897.59       318.525       44264.1       43.3293       16.6556             0       4.68558       2.50401             0       54.9273       9.05889             0       47.1927             0             0   1.22477e-10     0.0898265     0.0779378        107670        103240        640677      0.164579
    0.0347648       1897.58        318.28       43890.6       42.7678       16.7716             0       4.68847       2.54128             0        55.244       9.20013             0       46.8318             0             0   1.12233e-10     0.0898893     0.0772908        107670        103241        640447      0.164694
    0.0349349       1897.58       318.035         43517       42.2062       16.8875             0       4.69136       2.57855             0       55.5607       9.34136             0        46.471             0             0   1.01988e-10     0.0899522     0.0766437        107670        103241        640216      0.164809
    0.0351051       1897.52       317.779       43121.7       41.6382       16.9258             0       4.69727       2.61201             0       55.9586       9.46064             0       46.0635             0             0   9.35156e-11      0.090009     0.0760592        107674        103242        640022      0.164913
    0.0352753       1897.43       317.516       42712.9       41.0661       16.9161             0       4.70506        2.6431             0       56.4067       9.56632             0       45.6271             0             0   8.61394e-11      0.090062     0.0755132        107679        103243        639852       0.16501
    0.0354454       1897.34       317.253       42304.1       40.4941       16.9063             0       4.71285       2.67419             0       56.8548         9.672             0       45.1908             0             0   7.87632e-11      0.090115     0.0749673        107684        103244        639681      0.165108
    0.0356156       1897.25        316.99       41895.3        39.922       16.8966             0       4.72064       2.70528             0        57.303       9.77768             0       44.7544             0             0    7.1387e-11     0.0901681     0.0744214        107689        103245        639511      0.165205
    0.0357858       1897.17       316.727       41486.5       39.3499       16.8868             0       4.72843       2.73637             0       57.7511       9.88336             0       44.3181             0             0   6.40109e-11     0.0902211     0.0738755        107695        103246        639340      0.165302
     0.035956       1897.08       316.464       41077.7       38.7779        16.877             0       4.73622       2.76746             0       58.1992       9.98904             0       43.8817             0             0   5.66347e-11     0.0902742     0.0733295        107700        103247        639169      0.165399
    0.0361261       1896.95       316.183       40634.6       38.2368       16.8011             0       4.74817       2.79338             0       58.6905       10.0464             0       43.4102             0             0   5.01685e-11      0.090324      0.072817        107710        103248        639044       0.16549
    0.0362963       1896.81       315.896       40179.4       37.7066       16.7022             0       4.76158        2.8175             0       59.1968       10.0868             0       42.9264             0             0   4.40201e-11     0.0903727     0.0723162        107721        103249        638934       0.16558
    0.0364665       1896.67       315.609       39724.3       37.1764       16.6032             0       4.77498       2.84162             0       59.7031       10.1273             0       42.4426             0             0   3.78718e-11     0.0904214     0.0718154        107732        103250        638825      0.165669
    0.0366366       1896.53       315.323       39269.1       36.6462       16.5042             0       4.78838       2.86574             0       60.2094       10.1677             0       41.9588             0             0   3.17234e-11       0.09047     0.0713145        107744        103251        638715      0.165758
    0.0368068       1896.39       315.036         38814        36.116       16.4052             0       4.80179       2.88986             0       60.7158       10.2081             0        41.475             0             0    2.5575e-11     0.0905187     0.0708137        107755        103253        638606      0.165847
     0.036977       1896.25       314.749       38358.8       35.5858       16.3062             0       4.81519       2.91398             0       61.2221       10.2486             0       40.9912             0             0   1.94266e-11     0.0905674     0.0703129        107766        103254        638496      0.165936
    0.0371471       1896.25       314.407       37795.1       35.1224       16.0695             0       4.83345       2.93033             0       61.6829       10.2434             0       40.4674             0             0   1.74117e-11     0.0906248     0.0697231        107782        103255        638487      0.166042
    0.0373173       1896.27       314.056       37214.5       34.6694       15.8111             0       4.85247       2.94546             0       62.1365       10.2311             0       39.9375             0             0   1.60435e-11     0.0906836     0.0691193        107798        103256        638494      0.166149
    0.0374875       1896.29       313.706       36633.9       34.2164       15.5528             0       4.87149        2.9606             0       62.5902       10.2188             0       39.4076             0             0   1.46754e-11     0.0907423     0.0685156        107814        103257        638501      0.166257
    0.0376577       1896.31       313.355       36053.2       33.7634       15.2945             0       4.89051       2.97573             0       63.0439       10.2065             0       38.8776             0             0   1.33072e-11     0.0908011     0.0679119        107829        103258        638507      0.166364
    0.0378278       1896.34       313.004       35472.6       33.3103       15.0362             0       4.90953       2.99087             0       63.4975       10.1942             0       38.3477             0             0    1.1939e-11     0.0908598     0.0673082        107845        103260        638514      0.166472
     0.037998       1896.36       312.653         34892       32.8573       14.7779             0       4.92855         3.006             0       63.9512       10.1819             0       37.8177             0             0   1.05708e-11     0.0909186     0.0667045        107861        103261        638521       0.16658
    0.0381682       1896.14       312.201       34115.3        32.541       14.4105             0       4.95286       3.00982             0          64.2       10.1759             0       37.2402             0             0   9.53072e-12     0.0909865      0.066007        107877        103262        638673      0.166704
    0.0383383       1895.92       311.746       33336.4       32.2263       14.0418             0       4.97724       3.01351             0       64.4464       10.1699             0       36.6622             0             0   8.49453e-12     0.0910545     0.0653084        107893        103263        638827      0.166829
    0.0385085       1895.69       311.292       32557.4       31.9116       13.6731             0       5.00163        3.0172             0       64.6927       10.1639             0       36.0841             0             0   7.45834e-12     0.0911225     0.0646098        107909        103265        638982      0.166953
    0.0386787       1895.47       310.838       31778.5       31.5969       13.3045             0       5.02601       3.02088             0       64.9391        10.158             0        35.506             0             0   6.42215e-12     0.0911905     0.0639112        107925        103266        639136      0.167078
    0.0388488       1895.25       310.384       30999.5       31.2822       12.9358             0       5.05039       3.02457             0       65.1854        10.152             0        34.928             0             0   5.38595e-12     0.0912585     0.0632126        107941        103267        639290      0.167203
     0.039019        1894.9        309.92       30202.7       30.9927       12.5484             0       5.07521       3.02692             0       65.4076       10.1528             0       34.3437             0             0   4.39349e-12     0.0913275     0.0625039        107957        103268        639463      0.167329
    0.0391892       1893.59       309.376       29263.6       30.9036       12.0123             0       5.10355        3.0187             0       65.4377       10.2067             0       33.7099             0             0   3.74858e-12     0.0914047     0.0617143        107971        103270        639784       0.16747
    0.0393594       1892.28       308.833       28324.5       30.8144       11.4763             0        5.1319       3.01048             0       65.4677       10.2606             0       33.0762             0             0   3.10367e-12     0.0914818     0.0609248        107985        103271        640105      0.167612
    0.0395295       1890.96        308.29       27385.4       30.7253       10.9402             0       5.16024       3.00225             0       65.4978       10.3146             0       32.4425             0             0   2.45875e-12     0.0915589     0.0601353        107999        103272        640426      0.167753
    0.0396997       1889.65       307.746       26446.3       30.6361       10.4041             0       5.18859       2.99403             0       65.5279       10.3685             0       31.8087             0             0   1.81384e-12     0.0916361     0.0593457        108014        103274        640746      0.167894
    0.0398699       1888.33       307.203       25507.2        30.547       9.86806             0       5.21693        2.9858             0        65.558       10.4225             0        31.175             0             0   1.16893e-12     0.0917132     0.0585562        108028        103275        641067      0.168036
      0.04004       1886.66       306.654       24564.8        30.398       9.38211             0       5.24578       2.97531             0       65.5581       10.4835             0       30.5314             0             0    7.8793e-12     0.0917909     0.0577651        108039        103276        641414      0.168178
    0.0402102       1883.81       306.089       23611.8       30.0543       9.05906             0        5.2763       2.95745             0       65.4608       10.5676             0       29.8562             0             0   3.84943e-11     0.0918704     0.0569688        108042        103278        641845      0.168324
    0.0403804       1880.96       305.523       22658.9       29.7107       8.73602             0       5.30681       2.93959             0       65.3635       10.6517             0       29.1809             0             0   6.91094e-11     0.0919499     0.0561725        108044        103279        642277      0.168469
    0.0405506       1878.11       304.957       21705.9        29.367       8.41297             0       5.33732       2.92173             0       65.2662       10.7357             0       28.5056             0             0   9.97244e-11     0.0920294     0.0553761        108047        103280        642708      0.168615
    0.0407207       1875.26       304.392       20752.9       29.0233       8.08992             0       5.36784       2.90387             0       65.1689       10.8198             0       27.8303             0             0   1.30339e-10     0.0921088     0.0545798        108049        103282        643139      0.168761
    0.0408909       1872.41       303.826         19800       28.6797       7.76688             0       5.39835       2.88602             0       65.0715       10.9039             0        27.155             0             0   1.60954e-10     0.0921883     0.0537835        108052        103283        643571      0.168906
    0.0410611       1868.93       303.236       18808.2       28.3539       7.58831             0       5.42852       2.86589             0       64.9422        10.972             0       26.4745             0             0   8.51865e-09     0.0922753     0.0529359        108050        103285        644005      0.169066
    0.0412312        1864.3       302.602       17747.3       28.0599       7.66791             0       5.45807       2.84172             0       64.7556       11.0117             0       25.7847             0             0   3.17559e-08     0.0923757     0.0519968        108042        103286        644445      0.169249
    0.0414014       1859.68       301.969       16686.3        27.766       7.74751             0       5.48762       2.81754             0       64.5689       11.0513             0       25.0948             0             0   5.49931e-08     0.0924761     0.0510576        108034        103287        644885      0.169433
    0.0415716       1855.05       301.335       15625.4       27.4721       7.82711             0       5.51717       2.79337             0       64.3823        11.091             0       24.4049             0             0   7.82303e-08     0.0925764     0.0501184        108026        103289        645325      0.169617
    0.0417417       1850.43       300.701       14564.4       27.1782       7.90671             0       5.54672        2.7692             0       64.1957       11.1307             0       23.7151             0             0   1.01468e-07     0.0926768     0.0491792        108018        103290        645765      0.169801
    0.0419119        1845.8       300.068       13503.5       26.8842       7.98631             0       5.57627       2.74503             0       64.0091       11.1703             0       23.0252             0             0   1.24705e-07     0.0927772       0.04824        108010        103292        646205      0.169985
    0.0420821       1835.82       299.371       12357.4       26.3173       7.89024             0       5.60272       2.71888             0       63.8016       11.1698             0       22.3377             0             0   9.81474e-06     0.0929056     0.0470982        107984        103293        646657       0.17022
    0.0422523       1820.07       298.607       11120.1       25.4575       7.60565             0       5.62583       2.69062             0       63.5716       11.1261             0       21.6526             0             0   2.98789e-05     0.0930641     0.0457388        107938        103294        647122      0.170511
    0.0424224       1804.33       297.842       9882.73       24.5977       7.32106             0       5.64894       2.66235             0       63.3417       11.0823             0       20.9676             0             0   4.99431e-05     0.0932227     0.0443794        107892        103296        647587      0.170801
    0.0425926       1788.59       297.078       8645.38       23.7379       7.03646             0       5.67205       2.63409             0       63.1117       11.0386             0       20.2826             0             0   7.00072e-05     0.0933812       0.04302        107847        103297        648053      0.171092
    0.0427628       1772.84       296.314       7408.02       22.8781       6.75187             0       5.69517       2.60583             0       62.8818       10.9949             0       19.5976             0             0   9.00714e-05     0.0935397     0.0416605        107801        103299        648518      0.171382
    0.0429329        1757.1        295.55       6170.67       22.0183       6.46728             0       5.71828       2.57757             0       62.6518       10.9512             0       18.9126             0             0   0.000110136     0.0936983     0.0403011        107755        103300        648983      0.171673
    0.0431031       1686.78        294.89       5213.69       21.2307       6.19679             0       5.73522       2.54625             0       62.4115       10.8471             0       18.2386             0             0    0.00858084     0.0900349     0.0411716        107734        103301        649489      0.164961
    0.0432733       1580.96       294.299       4439.07       20.4902       5.93547             0       5.74813       2.51295             0       62.1645       10.7038             0       17.5718             0             0     0.0225486     0.0838855     0.0434925        107730        103303        650021      0.153694
    0.0434434       1475.13       293.707       3664.46       19.7496       5.67416             0       5.76105       2.47964             0       61.9174       10.5605             0        16.905             0             0     0.0365163     0.0777361     0.0458134        107725        103304        650553      0.142427
    0.0436136       1369.31       293.116       2889.84       19.0091       5.41284             0       5.77397       2.44634             0       61.6704       10.4172             0       16.2383             0             0      0.050484     0.0715866     0.0481343        107721        103306        651085       0.13116
    0.0437838       1263.49       292.524       2115.22       18.2685       5.15153             0       5.78689       2.41303             0       61.4233       10.2739             0       15.5715             0             0     0.0644517     0.0654372     0.0504553        107717        103307        651618      0.119893
     0.043954       1157.67       291.933       1340.61        17.528       4.89022             0       5.79981       2.37973             0       61.1762       10.1306             0       14.9047             0             0     0.0784194     0.0592878     0.0527762        107712        103308        652150      0.108626
    0.0441241       1051.91       291.593       1016.58       17.2618       4.81731             0       5.80525       2.33976             0       60.8084        9.9258             0       14.2554             0             0     0.0940746     0.0522684     0.0564739        107730        103310        652734     0.0957654
    0.0442943        946.18       291.347       859.716       17.1717       4.81429             0        5.8079       2.29731             0       60.3958       9.69823             0       13.6127             0             0      0.110356     0.0449263     0.0606825        107757        103311        653338     0.0823134
    0.0444645        840.45       291.102       702.847       17.0815       4.81128             0       5.81055       2.25487             0       59.9832       9.47066             0       12.9699             0             0      0.126637     0.0375842      0.064891        107783        103312        653942     0.0688613
    0.0446346       734.719       290.856       545.979       16.9914       4.80826             0       5.81321       2.21243             0       59.5706       9.24309             0       12.3272             0             0      0.142918     0.0302422     0.0690995        107809        103314        654546     0.0554093
    0.0448048       628.989        290.61        389.11       16.9012       4.80525             0       5.81586       2.16998             0       59.1579       9.01552             0       11.6844             0             0      0.159199     0.0229001      0.073308        107836        103315        655149     0.0419572
     0.044975       523.259       290.364       232.242       16.8111       4.80223             0       5.81851       2.12754             0       58.7453       8.78795             0       11.0416             0             0       0.17548      0.015558     0.0775166        107862        103316        655753     0.0285052
    0.0451451       493.664       290.235       192.321       16.4201        4.6687             0       5.81281       2.07431             0       58.1126       8.50803             0       10.4463             0             0      0.180084     0.0132257      0.081372        107850        103317        656324     0.0242319
    0.0453153       477.196       290.127       172.563       15.9773       4.51267             0       5.80567       2.01922             0       57.4419       8.21908             0       9.85924             0             0      0.182675     0.0117571     0.0851665        107832        103319        656890     0.0215411
    0.0454855       460.727       290.019       152.805       15.5345       4.35664             0       5.79852       1.96413             0       56.7712       7.93013             0       9.27213             0             0      0.185265     0.0102885      0.088961        107813        103320        657455     0.0188504