#           y             T         TMean   TPrime2Mean           U_x           U_y           U_z       UMean_x       UMean_y       UMean_z UPrime2Mea... UPrime2Mea... UPrime2Mea... UPrime2Mea... UPrime2Mea... UPrime2Mea...            O2           H2O          C3H8             p         pMean   pPrime2Mean           CO2
  1.11022e-19       290.228       288.077      0.158599       26.3007  -3.71985e-15             0       23.0753  -5.33761e-16             0       13.0366   -7.0474e-16             0   9.61031e-17             0             0      0.229991   2.36924e-07   3.65531e-05        108759        103233        676575   4.34089e-07
  0.000500501       290.233       288.084      0.173292       26.3157     -0.022564             0       23.0748    0.00723729             0       13.0384     -0.168554             0     0.0406225             0             0      0.229968   1.25844e-06   0.000125978        108762        103233        676635   2.30569e-06
     0.001001       290.239       288.092      0.190334       26.3308    -0.0450687             0       23.0743     0.0144736             0       13.0404     -0.337128             0     0.0813701             0             0      0.229945   2.30924e-06   0.000216779        108765        103233        676695   4.23097e-06
    0.0015015       290.325       288.178        1.3801        26.344    -0.0380152             0       23.0784     0.0212061             0        13.109     -0.515645             0      0.184604             0             0      0.229729   1.79795e-05   0.000993901        108775        103233        676486   3.29419e-05
     0.002002       290.416       288.265       2.65965       26.3574    -0.0308613             0       23.0825     0.0279391             0       13.1778     -0.694128             0      0.288291             0             0      0.229509   3.42748e-05    0.00178496        108785        103233        676278   6.27978e-05
    0.0025025       291.699       288.754       26.2938       26.3978    0.00131082             0       23.0848     0.0347724             0       13.2934     -0.864364             0      0.504676             0             0      0.228123   0.000206187    0.00604632        108794        103232        676575   0.000377773
     0.003003       293.065        289.25       50.7273       26.4378     0.0336722             0       23.0873     0.0416041             0       13.4104      -1.03511             0       0.72257             0             0      0.226708   0.000385025     0.0103633        108803        103232        676871   0.000705437
    0.0035035       308.148       290.824       207.589       26.4273     0.0973923             0        23.116     0.0481562             0       13.7769      -1.29095             0       1.19027             0             0      0.220466    0.00171121     0.0238871        108811        103231        677019    0.00313526
     0.004004       323.763       292.428        385.03       26.4167      0.160429             0       23.1448     0.0547878             0       14.1444      -1.54696             0       1.66006             0             0      0.214141    0.00307082     0.0374343        108819        103231        677177    0.00562631
    0.0045045       405.274       297.661       3114.32       26.3805      0.138744             0       23.1888     0.0712921             0        14.649      -1.82469             0       2.38998             0             0      0.197365    0.00857475     0.0538865        108824        103230        678534     0.0157105
   0.00500501       489.846        303.05       6113.45       26.3337      0.117437             0       23.2338     0.0887159             0       15.1659      -2.09309             0       3.13025             0             0      0.180246     0.0142399     0.0701729        108829        103229        679876     0.0260901
   0.00550551       877.522       323.828         35827       25.2468      0.133535             0       23.3827      0.197176             0       16.8996      -1.43879             0       4.89503             0             0      0.129229     0.0358637     0.0700504        108833        103228        679689      0.065709
   0.00600601       1264.33       344.575       65535.9       24.1444       0.16625             0         23.53      0.305237             0       18.6273     -0.797093             0       6.65131             0             0     0.0783513     0.0574344     0.0698652        108837        103226        679485      0.105231
   0.00650651       1579.63       362.684       94867.4       21.7654        1.5671             0       23.5458      0.380526             0       19.8662      -1.19366             0       7.70877             0             0     0.0389817     0.0746326     0.0645157        108840        103224        677759      0.136741
   0.00700701       1890.43       380.563        123812       19.4107       2.96385             0        23.557      0.454408             0       21.0893      -1.59713             0       8.74761             0             0   0.000162181     0.0915824     0.0593242        108843        103222        676060      0.167796
   0.00750751       1884.59       382.185        125523       18.7595       4.07231             0       23.2468      0.429214             0       21.1938      -2.48692             0       8.47533             0             0   8.07754e-05     0.0910372     0.0652696        108845        103221        676259      0.166797
   0.00800801       1878.72        383.79        127189       18.1429        5.1727             0         22.93       0.40477             0       21.3138      -3.35503             0       8.21164             0             0   6.66593e-07     0.0904845     0.0712857        108846        103220        676451      0.165785
   0.00850851       1871.89       384.319        126106        19.659       5.77625             0       22.2073      0.426455             0        22.388      -2.89061             0       8.47626             0             0     3.322e-07     0.0894747     0.0816585        108848        103219        676186      0.163934
   0.00900901       1865.02       384.862        125038       21.1724        6.3744             0       21.4764       0.44811             0       23.4806       -2.4238             0       8.73625             0             0   3.79267e-09     0.0884667     0.0920133        108849        103218        675918      0.162087
   0.00950951       1856.91       386.185        124747       22.5382       6.67824             0       20.2951      0.468118             0       25.5788      -1.82724             0       8.74327             0             0   1.88505e-09     0.0875531      0.101393        108847        103218        675521      0.160414
      0.01001       1848.94       387.531        124506       23.9008       6.97255             0       19.1138      0.487737             0       27.7134      -1.22405             0       8.74634             0             0   1.54194e-11     0.0866491      0.110673        108846        103218        675121      0.158757
    0.0105105       1847.99       390.039        126664       25.0976       6.79992             0        17.932      0.488272             0       31.6327     -0.295889             0       8.55586             0             0   7.65758e-12     0.0862176      0.115091        108846        103219        674549      0.157967
     0.011011       1847.18       392.505        128755       26.3014       6.62639             0       16.7595       0.48755             0       35.5442      0.612362             0        8.3707             0             0   6.57397e-14     0.0858013      0.119354        108846        103219        673981      0.157204
    0.0115115       1852.43       393.103        127868       27.8161       6.41284             0       16.0058      0.430911             0       39.1103      0.635345             0       8.42225             0             0    3.2671e-14     0.0860598      0.116681        108847        103219        673621      0.157678
     0.012012       1857.61       393.641        126874       29.3283       6.19369             0       15.2628      0.373979             0       42.6345        0.6347             0        8.4805             0             0   3.91254e-16     0.0863172      0.114018        108847        103219        673267      0.158149
    0.0125125       1859.57       391.756        121557       30.7355       5.74688             0       14.9574      0.305122             0       44.4572     -0.326763             0       8.81118             0             0   1.94581e-16     0.0865324      0.111802        108847        103218        673125      0.158543
     0.013013       1860.77       389.845        116218        32.116       5.30727             0       14.6589      0.236362             0       46.2505      -1.28889             0       9.15232             0             0   2.98221e-18     0.0867057      0.110018        108847        103218        672991      0.158861
    0.0135135        1833.6       386.993        110028       32.4975       5.13725             0       14.6171      0.171274             0       46.9448      -2.27581             0       9.88501             0             0   1.48039e-18       0.08531      0.124392        108842        103217        673139      0.156304
     0.014014       1805.54       384.086        103803        32.842        4.9743             0       14.5818      0.106654             0       47.6149      -3.26011             0       10.6283             0             0   2.03225e-20     0.0838664      0.139259        108836        103215        673293      0.153659
    0.0145145       1746.14       379.226       96336.5       31.9044       5.05689             0       14.7695     0.0582754             0       47.4449      -4.15312             0        11.741             0             0   1.00709e-20     0.0807593      0.171215        108829        103214        673666      0.147966
     0.015015       1686.71       374.351       88898.7       30.9549       5.13936             0        14.964    0.00992235             0       47.2742      -5.04364             0       12.8664             0             0   1.31141e-22     0.0776352      0.203343        108822        103212        674046      0.142242
    0.0155155       1626.03       368.941       82395.7       29.6225       5.21816             0       15.3813    -0.0376086             0       47.0843      -5.85391             0       14.4047             0             0      2.74e-22     0.0739644       0.24102        108813        103210        674651      0.135517
     0.016016       1565.88        363.56         75941       28.2971        5.2976             0        15.806    -0.0846093             0       46.9007       -6.6532             0       15.9483             0             0     4.485e-21     0.0702971      0.278661        108805        103207        675272      0.128797
    0.0165165       1521.91       359.043       70947.8       27.1826       5.39639             0        16.455      -0.11557             0       46.9064       -7.1206             0       17.6527             0             0   1.31757e-19     0.0667354      0.315162        108793        103204        676401      0.122272
     0.017017       1478.51       354.534       65967.3       26.0753       5.49612             0       17.1118     -0.144847             0       46.9299      -7.54629             0       19.3579             0             0   3.09547e-18     0.0631923      0.351473        108782        103201        677551       0.11578
    0.0175175       1451.25        350.29       61346.6       25.1693       5.62253             0       17.9913     -0.126283             0       47.4608      -6.78687             0       21.0853             0             0   8.66474e-17     0.0601758      0.382386        108768        103197        679320      0.110253
     0.018018       1424.73       346.044       56729.6       24.2665       5.75086             0        18.866     -0.106299             0       48.0157      -5.99064             0       22.8145             0             0   7.18802e-16     0.0572107      0.412773        108753        103193        681115      0.104821
    0.0185185       1418.18       341.744       52210.6       23.4466       5.93044             0        19.615    -0.0482859             0       49.2142      -4.20902             0        24.589             0             0   1.60413e-14     0.0556201       0.42908        108737        103189        683622      0.101906
     0.019019       1411.96       337.438       47690.9        22.633       6.10622             0       20.3491    0.00872395             0       50.3947      -2.42564             0       26.3684             0             0   6.24903e-14     0.0540766      0.444904        108721        103184        686156     0.0990785
    0.0195195       1413.96       332.975       43151.4       21.9815       6.18595             0       20.7079     0.0403503             0       51.1224     -0.597671             0       28.2703             0             0   8.96931e-13     0.0537252       0.44851        108705        103179        689353     0.0984345
      0.02002       1415.48       328.524       38620.8       21.3339        6.2582             0       21.0564     0.0710342             0       51.7765       1.21932             0       30.1856             0             0    1.7728e-12     0.0533857      0.451993        108689        103175        692573     0.0978126
    0.0205205       1405.29       324.354       34306.5       20.7797       6.15101             0       21.1574     0.0791016             0       50.6617       2.77285             0       32.4239             0             0   3.64285e-12     0.0533355      0.452532        108673        103170        696323     0.0977206
     0.021021        1394.8       320.221       30024.2       20.2143       6.04933             0       21.2506     0.0862609             0       49.4821        4.3115             0       34.6734             0             0    5.4994e-12     0.0533196      0.452721        108658        103165        700082     0.0976914
    0.0215215       1377.13        316.94       26473.5       19.3929       6.07344             0       21.1619     0.0727071             0       46.8214         5.511             0       37.1799             0             0   7.04783e-12     0.0540852      0.444939        108645        103159        704048     0.0990942
     0.022022       1359.09       313.694         22962       18.5724       6.10542             0       21.0635     0.0575898             0       44.1351       6.69338             0       39.6914             0             0   1.08906e-11     0.0548491      0.437175        108631        103154        708022      0.100494
    0.0225225       1333.06        311.22       20302.6       17.7708       6.30843             0       20.7541    0.00850143             0       40.8927       7.50401             0        42.314             0             0   6.45841e-11     0.0555742      0.429816        108620        103149        712177      0.101822
     0.023023       1306.73       308.774       17677.4       16.9905       6.50969             0        20.433    -0.0426136             0       37.6812       8.29514             0        44.938             0             0   7.88971e-10      0.056243      0.423033        108608        103143        716337      0.103048
    0.0235235       1274.11       306.909       15762.3        16.653       6.67442             0       19.8679      -0.13576             0       35.1098       8.68178             0       47.5925             0             0    1.5423e-08     0.0557416      0.428213        108597        103138        720611      0.102129
     0.024024        1241.9       305.065         13873       16.3307       6.83553             0       19.2989     -0.230898             0       32.6133       9.06058             0       50.2492             0             0   6.73312e-08      0.055209      0.433713        108585        103133        724893      0.101153
    0.0245245       1217.63       303.665       12493.3       16.3078       6.92455             0        18.653     -0.365561             0       31.6022       9.28361             0       52.9489             0             0   8.58512e-07     0.0540546      0.445545        108572        103128        729354      0.099038
     0.025025       1194.21       302.282       11132.2       16.2861       7.01739             0       18.0115     -0.501295             0       30.6185       9.51302             0       55.6543             0             0    2.0958e-06     0.0528923      0.457454        108559        103123        733825     0.0969086
    0.0255255       1186.76       301.209       10123.5       16.2857       7.18271             0       17.4565     -0.657387             0       30.1552       9.86362             0       58.4676             0             0   1.18091e-05     0.0515812      0.470813        108543        103118        738504     0.0945064
     0.026026       1179.92       300.147       9125.59       16.2824       7.35029             0       16.9024     -0.814505             0       29.6662       10.2103             0       61.2831             0             0   2.11194e-05     0.0502913      0.483957        108528        103112        743196     0.0921431
    0.0265265       1184.38       299.254       8323.53        16.228       7.55914             0       16.3633     -0.990328             0       28.7102       10.4859             0       64.1374             0             0   2.30845e-05     0.0493884      0.493162        108514        103107        748121     0.0904887
     0.027027       1188.61       298.365       7525.06       16.1741       7.75652             0        15.819      -1.16759             0       27.7386       10.7454             0       66.9901             0             0   2.44354e-05     0.0485096      0.502123        108500        103100        753050     0.0888786
    0.0275275       1188.89       297.541       6789.56       16.1296       7.75326             0       15.1821      -1.37004             0        26.493       10.7238             0       69.8134             0             0   1.50259e-05      0.048054      0.506804        108491        103094        758064     0.0880439
     0.028028        1188.5       296.718       6054.94       16.0733       7.74149             0       14.5404      -1.57374             0        25.257       10.6898             0       72.6246             0             0   6.21009e-06     0.0476086      0.511379        108483        103087        763070     0.0872278
    0.0285285       1176.76        295.91       5335.28       15.8183       7.58633             0       13.8169      -1.79851             0       24.1808        10.447             0       75.2317             0             0   7.40265e-06     0.0473347      0.514162        108482        103080        767953      0.086726
     0.029029       1164.19       295.101        4615.5       15.5305       7.45012             0       13.0894      -2.02388             0       23.1334       10.2016             0       77.8113             0             0   2.29343e-05     0.0470586      0.516906        108482        103073        772801     0.0862202
    0.0295295       1137.91       294.272       3893.99         14.71       7.62178             0        12.296      -2.25883             0       22.5548       9.91567             0       79.9446             0             0   0.000271353     0.0467466      0.519016        108487        103067        777075     0.0856485
      0.03003       1110.12       293.443       3174.11       13.8531       7.81975             0       11.4991       -2.4939             0       22.0195       9.63956             0       82.0343             0             0   0.000643886     0.0463815       0.52113        108493        103060        781293     0.0849796
    0.0305305       1058.61       292.592       2479.77        12.427       8.42991             0       10.6456      -2.73087             0       22.1641       9.51684             0       83.4391             0             0    0.00296088     0.0451854      0.523327        108501        103053        784637      0.082788
     0.031031       1004.89       291.747       1795.89        10.991       9.02205             0        9.7882      -2.96702             0       22.3617       9.41042             0       84.7933             0             0    0.00568117     0.0438557      0.525141        108508        103047        787912     0.0803518
    0.0315315        917.95       290.981       1270.21       9.40323       9.34175             0       8.87123      -3.19097             0       23.3617        9.5506             0       85.3816             0             0      0.014503     0.0405058      0.521167        108506        103042        790159     0.0742141
     0.032032       829.786       290.228        760.52       7.85545       9.61775             0       7.95221      -3.41389             0          24.4       9.70203             0       85.9254             0             0      0.023991     0.0370105      0.515788        108504        103037        792346     0.0678101
    0.0325325       723.769       289.682       484.577       6.89231       9.25464             0       7.00307      -3.62173             0       25.9986       10.0179             0       85.8178             0             0     0.0432219     0.0313892      0.489875        108495        103033        793673     0.0575108
     0.033033        618.83       289.154       220.743       5.97769       8.87837             0       6.05396      -3.82821             0       27.5904       10.3331             0       85.6759             0             0     0.0627997     0.0257429       0.46271        108485        103029        794962     0.0471658
    0.0335335       529.137       288.871       128.257       5.74967       8.31579             0       5.10524      -4.01537             0       29.0862       10.6394             0       85.0487             0             0     0.0872884     0.0197441      0.417813        108471        103026        795703     0.0361749
     0.034034       442.091       288.599       40.7989       5.53616       7.75129             0       4.15696      -4.20099             0       30.5266        10.929             0       84.3909             0             0      0.111428     0.0138731      0.373124        108456        103023        796425     0.0254182
    0.0345345        391.34       288.494       22.2603       5.52156       7.16042             0       3.21448       -4.3654             0        31.207       10.9889             0       83.3138             0             0      0.130776     0.0097541      0.331284        108445        103021        796885     0.0178713
     0.035035       342.864       288.394       4.87324       5.50631       6.57148             0       2.27197      -4.52832             0       31.8132       11.0194             0       82.2032             0             0      0.149576     0.0057934      0.290199        108433        103020        797329     0.0106146
    0.0355355       324.619       288.364        2.7864       5.48232       6.00824             0       1.32908      -4.67145             0       31.4347       10.6592             0       80.6491             0             0        0.1611    0.00393629      0.259159        108410        103019        797563    0.00721201
     0.036036       307.311       288.335      0.831317       5.45785       5.45531             0      0.385902      -4.81323             0        31.019       10.2692             0       79.0568             0             0      0.172312    0.00216505      0.228594        108386        103019        797750    0.00396677
    0.0365365        302.08       288.326      0.574498       5.42721       5.03547             0     -0.560821      -4.93758             0       30.1242       9.49463             0        76.974             0             0      0.179503    0.00150067       0.20415        108345        103020        797333     0.0027495
     0.037037       297.097       288.318       0.33292       5.40032       4.62679             0      -1.50702      -5.06006             0       29.2619        8.7092             0       74.8528             0             0      0.186539   0.000867062      0.180064        108304        103022        796842    0.00158862
    0.0375375       295.218       288.315      0.282046        5.4203       4.35777             0      -2.44672       -5.1591             0       28.8065       7.78739             0       72.2512             0             0      0.191633   0.000618584      0.160465        108264        103025        795419    0.00113336
     0.038038       293.419       288.312      0.234269       5.45043       4.09163             0        -3.384      -5.25537             0       28.4403       6.88625             0       69.6158             0             0        0.1966    0.00038131      0.141304        108225        103028        793917   0.000698632
    0.0385385       292.586       288.311       0.22413       5.60383       3.86055             0      -4.29194      -5.31785             0       29.1584        6.2363             0       66.5693             0             0      0.200018   0.000280249      0.127484        108191        103033        791455   0.000513469
     0.039039       291.786       288.309      0.214879       5.76867       3.62081             0      -5.19448       -5.3765             0       29.9867       5.63243             0       63.4989             0             0      0.203344   0.000183443      0.114014        108159        103038        788933   0.000336101
    0.0395395       291.369       288.306      0.216123       6.06868       3.27871             0      -6.03311      -5.39001             0       32.1187       5.57327             0       60.1476             0             0      0.205599   0.000136928       0.10469        108140        103045        785711   0.000250878
      0.04004       290.967       288.303      0.217518       6.37152       2.92698             0      -6.86261      -5.39891             0       34.3444       5.56551             0        56.782             0             0      0.207803   9.21868e-05     0.0955626        108123        103052        782451   0.000168903
    0.0405405       290.742       288.299      0.220645       6.70705        2.4647             0      -7.58717      -5.35493             0       37.6489        6.1488             0       53.2519             0             0      0.209437   6.78382e-05     0.0887095        108120        103061        778772   0.000124292
     0.041041       290.526       288.295       0.22359       7.04483       1.99637             0      -8.29897      -5.30573             0       41.0022       6.76789             0       49.7131             0             0      0.211028   4.44333e-05     0.0820325        108119        103070        775068   8.14101e-05
    0.0415415       290.415       288.294      0.224506       7.40777       1.46039             0      -8.86808      -5.19814             0       44.9019       7.78767             0       46.0776             0             0      0.212141   3.15942e-05      0.077326        108132        103079        771084   5.78864e-05
     0.042042       290.309       288.293       0.22539       7.77828      0.921305             0      -9.42218      -5.08506             0       48.7992       8.81689             0       42.4413             0             0        0.2132   1.93413e-05     0.0728479        108147        103089        767095   3.54368e-05
    0.0425425       290.267       288.293      0.225928       8.23143      0.348344             0      -9.81253      -4.91206             0       52.6701        9.9491             0       38.7971             0             0      0.213671    1.3481e-05     0.0708597        108173        103098        763063   2.46997e-05
     0.043043       290.228       288.293      0.226517       8.69173     -0.224149             0      -10.1875      -4.73319             0       56.5203       11.0643             0       35.1641             0             0      0.214093   7.92985e-06      0.069081        108200        103108        759043    1.4529e-05
    0.0435435       290.222       288.292      0.227654       9.22813     -0.791668             0      -10.3994      -4.49194             0       60.1501        11.999             0       31.6512             0             0      0.213995   5.66425e-06     0.0695289        108235        103117        755147    1.0378e-05
     0.044044       290.216        288.29      0.228576       9.76598       -1.3534             0      -10.5963      -4.24544             0       63.7886       12.9079             0       28.1601             0             0      0.213865   3.52024e-06     0.0701152        108271        103126        751281   6.44974e-06
    0.0445445       290.227       288.287      0.227261       10.3189      -1.85511             0      -10.6372      -3.94457             0       67.5183       13.5494             0       24.8962             0             0      0.213403   2.63648e-06     0.0721361        108312        103134        747716   4.83052e-06
     0.045045       290.239       288.284      0.225804       10.8638      -2.34401             0      -10.6641      -3.63968             0       71.3139       14.1591             0        21.656             0             0      0.212929   1.78737e-06     0.0742022        108354        103142        744198    3.2748e-06
    0.0455455       290.262       288.279      0.222896       11.3266      -2.70337             0      -10.5502      -3.29421             0       75.7762       14.4486             0       18.6552             0             0       0.21235   1.28876e-06     0.0767254        108398        103150        741144   2.36125e-06