#           y             T         TMean   TPrime2Mean           U_x           U_y           U_z       UMean_x       UMean_y       UMean_z UPrime2Mea... UPrime2Mea... UPrime2Mea... UPrime2Mea... UPrime2Mea... UPrime2Mea...            O2           H2O          C3H8             p         pMean   pPrime2Mean           CO2
            0       288.606       288.298       0.22362       39.0096             0             0       15.5836             0             0       58.5706             0             0             0             0             0      0.228403     4.153e-12    0.00694232        107042        103238        436462   7.60907e-12
  0.000500501       288.421       288.306      0.226316       38.9801     -0.211448             0       15.5773     0.0168014             0       57.8124    -0.0211588             0     0.0768542             0             0      0.227916   7.31472e-12    0.00906285        107043        103238        436442   1.34019e-11
     0.001001       288.236       288.315      0.229014       38.9505     -0.422906             0        15.571     0.0336054             0       57.0535    -0.0422838             0      0.153906             0             0      0.227426   1.04934e-11     0.0111916        107043        103238        436422   1.92258e-11
    0.0015015       287.994       288.331      0.233242       38.8891     -0.639418             0       15.5688     0.0516409             0       55.9644     -0.046564             0      0.329534             0             0      0.225995    2.2112e-11     0.0174116        107045        103237        436345   4.05134e-11
     0.002002       287.752       288.347      0.237477       38.8276     -0.856004             0       15.5668      0.069671             0       54.8792    -0.0509568             0       0.50563             0             0      0.224562   3.37735e-11     0.0236452        107048        103237        436268   6.18793e-11
    0.0025025       287.719       288.359      0.243471       38.7661      -1.09117             0       15.5936     0.0863531             0       54.7716    -0.0834064             0      0.798333             0             0      0.222349   5.60812e-11      0.033266        107051        103237        436110   1.02751e-10
     0.003003       287.687       288.371      0.249477       38.7047      -1.32629             0       15.6205      0.103007             0       54.6682     -0.116386             0       1.09185             0             0      0.220124   7.84959e-11     0.0429394        107053        103237        435951   1.43819e-10
    0.0035035       287.817       288.377      0.257439       38.6473      -1.55369             0       15.6751      0.114975             0        55.242     -0.237178             0       1.51961             0             0      0.215899   1.18645e-10     0.0613097        107058        103236        435680    2.1738e-10
     0.004004       287.948       288.383      0.265337       38.5905      -1.78112             0       15.7297      0.126903             0        55.817     -0.358864             0       1.94849             0             0      0.211665   1.58992e-10     0.0797208        107063        103235        435408   2.91302e-10
    0.0045045       288.172        288.39      0.265339       38.5973      -2.01222             0       15.7876      0.133918             0        56.541     -0.591292             0       2.51638             0             0       0.20627   2.23851e-10      0.103176        107069        103235        434997   4.10136e-10
   0.00500501       288.396       288.396      0.265255       38.6053      -2.24351             0       15.8451       0.14092             0       57.2646     -0.824293             0       3.08533             0             0      0.200885   2.88819e-10      0.126587        107074        103234        434585   5.29169e-10
   0.00550551       288.608       288.405      0.256605       38.7271      -2.49345             0       15.8724      0.146778             0       57.9497      -1.11389             0       3.76052             0             0      0.196534   3.64549e-10      0.145507        107079        103233        434048   6.67922e-10
   0.00600601        288.82       288.414       0.24795       38.8487      -2.74268             0       15.8989      0.152675             0       58.6309      -1.40294             0       4.43624             0             0      0.192197   4.39871e-10      0.164363        107084        103232        433511   8.05926e-10
   0.00650651       288.971       288.424      0.238885        38.946      -2.93402             0       15.8645      0.161858             0       58.9848      -1.64704             0       5.15534             0             0      0.189079   4.81516e-10      0.177918        107088        103231        432818   8.82228e-10
   0.00700701       289.122       288.433      0.229851       39.0412      -3.12395             0        15.829      0.171116             0       59.3307      -1.88967             0       5.87442             0             0      0.185968   5.22273e-10      0.191444        107092        103230        432124   9.56901e-10
   0.00750751       289.224       288.442       0.22297       38.9769      -3.21458             0       15.7242      0.185585             0       59.1028      -2.02861             0       6.59119             0             0      0.183317   5.00414e-10      0.202972        107096        103229        431272   9.16852e-10
   0.00800801       289.325        288.45      0.216107       38.9115      -3.30498             0       15.6186      0.200107             0       58.8685      -2.16648             0       7.30805             0             0      0.180674   4.77719e-10      0.214461        107099        103228        430418    8.7527e-10
   0.00850851       289.385       288.458      0.210376       38.7694      -3.38107             0       15.4648      0.217854             0       58.2353      -2.23894             0       8.02936             0             0       0.17861   4.03608e-10      0.223436        107102        103227        429438   7.39486e-10
   0.00900901       289.444       288.467      0.204659       38.6284      -3.45868             0       15.3106        0.2356             0       57.6016      -2.31149             0       8.75129             0             0       0.17657   3.29573e-10      0.232304        107105        103225        428456   6.03839e-10
   0.00950951       289.464       288.477      0.199711       38.5466      -3.61882             0       15.1375      0.253344             0       56.9418      -2.38852             0       9.50708             0             0      0.175886    2.5966e-10      0.235277        107108        103224        427346   4.75745e-10
      0.01001       289.484       288.486      0.194794       38.4663      -3.78094             0       14.9642      0.271081             0       56.2816      -2.46567             0       10.2636             0             0      0.175231   1.90201e-10      0.238128        107111        103223        426234   3.48484e-10
    0.0105105       289.465       288.497      0.191377       38.4628      -4.03929             0       14.7839      0.288521             0       55.5976       -2.5488             0       11.0547             0             0      0.175953   1.43053e-10      0.234986        107115        103222        424992   2.62099e-10
     0.011011       289.446       288.507      0.188034       38.4593      -4.29868             0       14.6031      0.306013             0       54.9045      -2.63053             0       11.8457             0             0      0.176696    9.6181e-11      0.231758        107119        103220        423748   1.76222e-10
    0.0115115       289.398       288.517      0.187969       38.4544      -4.60382             0       14.4056      0.325854             0       53.8042      -2.64969             0       12.6343             0             0      0.178316   6.16117e-11      0.224715        107123        103219        422385   1.12884e-10
     0.012012       289.351       288.527      0.187959       38.4469       -4.9081             0       14.2075       0.34576             0       52.6875      -2.66655             0       13.4221             0             0      0.179932   2.75958e-11      0.217687        107127        103217        421023   5.05606e-11
    0.0125125        289.32       288.536      0.190206       38.3335       -5.1774             0       13.9842      0.368281             0       50.9049      -2.59022             0        14.178             0             0      0.181404   1.60886e-11      0.211288        107133        103216        419649   2.94772e-11
     0.013013        289.29       288.544      0.192415       38.2167      -5.44509             0       13.7606      0.390794             0       49.1094      -2.51286             0        14.933             0             0      0.182861   4.82405e-12      0.204953        107138        103215        418276   8.83856e-12
    0.0135135       289.285       288.552      0.193202       37.9734      -5.65257             0       13.5235      0.413017             0       46.8276      -2.39726             0       15.6554             0             0       0.18377   2.65262e-12      0.200999        107144        103213        416952   4.86009e-12
     0.014014       289.279        288.56      0.193923       37.7279        -5.859             0       13.2862      0.435209             0       44.5442      -2.28225             0       16.3757             0             0      0.184664   5.35139e-13      0.197111        107149        103212        415630   9.80475e-13
    0.0145145       289.293       288.566      0.192379       37.4085      -6.02859             0       13.0464      0.456356             0         42.21      -2.18751             0       17.0268             0             0      0.185034   2.90778e-13      0.195502        107154        103211        414403   5.32759e-13
     0.015015       289.307       288.573      0.190806       37.0867      -6.19648             0       12.8062      0.477582             0       39.8841      -2.09387             0       17.6729             0             0      0.185399   5.30344e-14      0.193918        107159        103210        413181    9.7169e-14
    0.0155155       289.328       288.579      0.188325       36.6861      -6.30908             0       12.5552      0.501329             0       37.8272      -2.03615             0        18.158             0             0      0.185585   2.92808e-14      0.193107        107164        103209        412080    5.3648e-14
     0.016016       289.349       288.585      0.185873       36.2819        -6.419             0       12.3035      0.525208             0       35.7828      -1.98078             0       18.6363             0             0      0.185774   6.22739e-15      0.192288        107168        103208        410983   1.14097e-14
    0.0165165       289.368       288.589      0.184311       35.7699      -6.44789             0       12.0333      0.553057             0       34.1175      -1.99632             0       18.9103             0             0       0.18601   4.35316e-15      0.191258        107172        103207        410002    7.9758e-15
     0.017017       289.387       288.593      0.182811       35.2552      -6.47448             0       11.7627      0.580903             0       32.4659      -2.01699             0        19.179             0             0      0.186255   2.53562e-15      0.190194        107176        103207        409024   4.64573e-15
    0.0175175       289.401       288.596      0.183055       34.6606      -6.43551             0       11.4825      0.608674             0       31.2053      -2.18343             0       19.2983             0             0       0.18672   2.32893e-15      0.188171        107179        103206        408154   4.26704e-15
     0.018018       289.416       288.598      0.183371       34.0652      -6.39549             0       11.2023      0.636317             0       29.9584      -2.35596             0       19.4139             0             0      0.187189   2.12814e-15      0.186133        107183        103206        407287   3.89916e-15
    0.0185185       289.425       288.598      0.185619       33.4466      -6.32743             0       10.9219      0.660527             0       29.0757       -2.6916             0        19.434             0             0      0.187747   2.08532e-15      0.183706        107185        103206        406546    3.8207e-15
     0.019019       289.434       288.599      0.187932       32.8285      -6.26005             0       10.6417      0.684639             0       28.2044      -3.03045             0       19.4504             0             0      0.188303   2.04258e-15      0.181289        107188        103205        405810   3.74238e-15
    0.0195195       289.436       288.598      0.191865       32.2249      -6.20993             0       10.3639       0.70628             0       27.6221      -3.45038             0       19.3708             0             0      0.188799   2.00191e-15      0.179135        107188        103205        405219   3.66787e-15
      0.02002       289.438       288.598      0.195857       31.6227      -6.16176             0       10.0863      0.727949             0       27.0489      -3.86795             0       19.2867             0             0      0.189293   1.96033e-15      0.176987        107188        103205        404634   3.59168e-15
    0.0205205       289.438       288.598      0.201266       31.0555      -6.16032             0       9.81151      0.750308             0       26.6925      -4.22849             0       19.0958             0             0      0.189756   1.89695e-15      0.174971        107186        103205        404171   3.47557e-15
     0.021021       289.438       288.598      0.206775       30.4901      -6.16094             0       9.53719       0.77291             0       26.3391      -4.58243             0       18.8995             0             0      0.190215    1.8337e-15      0.172978        107184        103205        403716   3.35968e-15
    0.0215215        289.44       288.599      0.214548       29.9684      -6.20851             0       9.27439       0.80108             0       26.0526      -4.78572             0       18.5797             0             0      0.190552   1.77312e-15      0.171513        107181        103205        403420   3.24869e-15
     0.022022       289.443         288.6      0.222467       29.4485      -6.25787             0       9.01286      0.829295             0       25.7588      -4.97822             0       18.2558             0             0      0.190881   1.71356e-15       0.17008        107178        103205        403133   3.13957e-15
    0.0225225        289.45       288.603      0.233527       28.9703      -6.34603             0       8.77879       0.85848             0       25.3064      -4.93644             0       17.8439             0             0       0.19105   1.67616e-15      0.169348        107175        103206        403046   3.07103e-15
     0.023023       289.458       288.606      0.244593       28.4935      -6.43519             0        8.5459      0.887908             0        24.852      -4.88726             0       17.4302             0             0      0.191213    1.6396e-15       0.16864        107172        103206        402971   3.00405e-15
    0.0235235       289.469       288.608      0.255782       28.0437      -6.54513             0       8.33772      0.922382             0       24.3565      -4.68478             0       16.9814             0             0      0.191263   1.62071e-15      0.168423        107170        103206        403121   2.96945e-15
     0.024024       289.481       288.611      0.266851       27.5942      -6.65451             0        8.1305      0.957146             0       23.8668      -4.47724             0       16.5318             0             0       0.19131   1.60208e-15      0.168218        107167        103207        403281   2.93532e-15
    0.0245245       289.497       288.613      0.275513       27.1492       -6.7527             0       7.94252      0.997679             0       23.4945      -4.16939             0       16.0692             0             0      0.191297   1.58855e-15      0.168272        107167        103207        403662   2.91053e-15
     0.025025       289.512       288.615      0.284106       26.7036      -6.84872             0       7.75533       1.03833             0       23.1343      -3.85646             0       15.6067             0             0      0.191283   1.57508e-15      0.168333        107166        103207        404054   2.88583e-15
    0.0255255       289.529       288.621        0.2914       26.2469      -6.90336             0       7.58323       1.08118             0       23.0017      -3.44704             0       15.1457             0             0       0.19124   1.56266e-15      0.168522        107168        103208        404667   2.86308e-15
     0.026026       289.546       288.627       0.29856       25.7894      -6.95469             0       7.41152       1.12449             0       22.8945      -3.04235             0        14.687             0             0      0.191195   1.55023e-15      0.168717        107170        103208        405292   2.84031e-15
    0.0265265       289.564       288.633      0.303292       25.3192      -6.94567             0       7.24725       1.17623             0       23.2501      -2.72374             0       14.2703             0             0      0.191119    1.5377e-15      0.169046        107174        103208        406142   2.81736e-15
     0.027027       289.581        288.64      0.307738       24.8487      -6.93267             0       7.08406       1.22813             0       23.6227      -2.41373             0       13.8593             0             0      0.191042   1.52511e-15      0.169383        107178        103208        407003   2.79428e-15
    0.0275275       289.598       288.642      0.307197       24.3738      -6.84991             0       6.93973       1.28273             0       24.2923      -2.25441             0       13.5463             0             0      0.190931   1.51134e-15      0.169863        107185        103208        408045   2.76906e-15
     0.028028       289.615       288.645      0.306314       23.8995      -6.76301             0       6.79786       1.33691             0       24.9493      -2.09851             0       13.2393             0             0      0.190821   1.49766e-15      0.170345        107192        103209        409095   2.74399e-15
    0.0285285       289.629       288.643      0.299676       23.4343      -6.60647             0       6.69738       1.38416             0       25.3949      -2.00025             0       13.0339             0             0      0.190704   1.48533e-15      0.170851        107200        103209        410279   2.72141e-15
     0.029029       289.643       288.641      0.292876       22.9706       -6.4462             0       6.60025       1.43059             0       25.8028       -1.8987             0       12.8332             0             0      0.190589   1.47318e-15      0.171354        107209        103209        411473   2.69914e-15
    0.0295295       289.653       288.636      0.283463       22.5304      -6.22522             0       6.55767       1.46381             0       25.5987      -1.74375             0        12.709             0             0       0.19048   1.46384e-15      0.171828        107218        103208        412806   2.68203e-15
      0.03003       289.663       288.631      0.274052       22.0925      -6.00134             0       6.51823       1.49614             0       25.3504      -1.58475             0       12.5878             0             0      0.190371   1.45454e-15      0.172302        107227        103208        414146   2.66499e-15
    0.0305305       289.669       288.627       0.26468       21.6919      -5.73189             0       6.52813       1.51433             0       24.4101      -1.36233             0       12.5138             0             0      0.190263   1.44587e-15      0.172772        107236        103208        415597    2.6491e-15
     0.031031       289.675       288.624      0.255216       21.2943      -5.46065             0       6.54002       1.53172             0         23.44       -1.1408             0       12.4419             0             0      0.190154   1.43703e-15      0.173243        107244        103208        417053   2.63291e-15
    0.0315315       289.678       288.623      0.244364       20.9438      -5.16217             0       6.58218        1.5369             0       22.0173     -0.932708             0       12.4025             0             0       0.19004    1.4258e-15      0.173737        107252        103208        418573   2.61233e-15
     0.032032        289.68       288.622      0.233405       20.5968      -4.86307             0       6.62505       1.54149             0       20.5906     -0.730956             0       12.3644             0             0      0.189929    1.4148e-15      0.174221        107260        103207        420094   2.59217e-15
    0.0325325       289.679       288.623      0.220873       20.3007      -4.55473             0       6.67823       1.53748             0       19.1026     -0.621956             0       12.3457             0             0      0.189851   1.40721e-15      0.174561        107266        103207        421617   2.57828e-15
     0.033033       289.679       288.624      0.208403       20.0082      -4.24638             0       6.73156       1.53318             0       17.6301     -0.521265             0       12.3275             0             0      0.189776   1.40016e-15      0.174887        107272        103207        423136   2.56535e-15
    0.0335335       289.678       288.625      0.196793       19.7676      -3.93776             0       6.78689       1.52467             0       16.3753     -0.538183             0       12.3151             0             0      0.189747   1.40048e-15      0.175012        107277        103207        424591   2.56595e-15
     0.034034       289.678       288.626      0.185352       19.5308      -3.62931             0       6.84259       1.51596             0       15.1378     -0.562636             0       12.3028             0             0       0.18972   1.40114e-15      0.175129        107281        103207        426042   2.56714e-15
    0.0345345       289.677       288.627      0.176233       19.3459      -3.32317             0       6.90337       1.50455             0       14.1361     -0.690376             0       12.2929             0             0      0.189721   1.40625e-15      0.175125        107286        103207        427434    2.5765e-15
     0.035035       289.676       288.628      0.167283       19.1647      -3.01729             0       6.96499       1.49302             0        13.143     -0.826095             0       12.2822             0             0      0.189724   1.41157e-15      0.175112        107291        103207        428818   2.58626e-15
    0.0355355       289.673       288.628      0.160583        19.033      -2.71496             0       7.03779       1.47972             0       12.2625      -1.06784             0       12.2621             0             0      0.189758   1.41977e-15      0.174966        107296        103208        430109   2.60129e-15
     0.036036        289.67       288.628      0.153996       18.9045      -2.41376             0       7.11108       1.46628             0       11.3942      -1.31825             0       12.2373             0             0      0.189793   1.42806e-15      0.174812        107301        103208        431387   2.61646e-15
    0.0365365       289.666       288.628      0.148875       18.8174      -2.12727             0       7.19069       1.45102             0       10.6842      -1.68044             0       12.1511             0             0      0.189853   1.43739e-15      0.174552        107307        103208        432499   2.63357e-15
     0.037037       289.662       288.629      0.143827       18.7316       -1.8434             0       7.26959       1.43536             0       10.0028      -2.04894             0       12.0559             0             0      0.189914   1.44689e-15      0.174288        107313        103208        433598   2.65098e-15
    0.0375375       289.656       288.629      0.139701       18.6624      -1.59239             0       7.33956       1.41465             0       9.67734      -2.49649             0       11.8493             0             0      0.189985   1.45842e-15       0.17398        107319        103209        434546    2.6721e-15
     0.038038       289.651        288.63      0.135619       18.5913      -1.34535             0       7.40814       1.39348             0       9.39053      -2.94608             0       11.6326             0             0      0.190054   1.47024e-15      0.173677        107325        103210        435480   2.69375e-15
    0.0385385       289.644       288.632      0.132074       18.4977      -1.14647             0       7.45989       1.36674             0       9.57309      -3.42045             0        11.292             0             0       0.19011   1.48564e-15      0.173434        107331        103210        436252   2.72196e-15
     0.039039       289.636       288.633      0.128533       18.4009      -0.95062             0       7.50983       1.33958             0       9.80249      -3.89193             0       10.9407             0             0      0.190163   1.50172e-15      0.173205        107338        103211        437008   2.75142e-15
    0.0395395       289.627       288.635      0.125044       18.2659     -0.790666             0       7.53833       1.30731             0       10.5855      -4.32938             0       10.4619             0             0      0.190177   1.52589e-15      0.173144        107344        103212        437577   2.79571e-15
      0.04004       289.617       288.636      0.121543       18.1302     -0.631288             0        7.5643       1.27461             0       11.4245      -4.75788             0       9.97335             0             0      0.190184   1.55091e-15      0.173116        107351        103213        438133   2.84155e-15
    0.0405405       289.606       288.635      0.117902       17.9862     -0.478524             0       7.56115       1.23686             0       12.9061      -5.08348             0       9.37149             0             0      0.190106   1.58571e-15      0.173455        107357        103215        438542   2.90532e-15
     0.041041       289.595       288.635      0.114243       17.8455     -0.324556             0       7.55492       1.19865             0       14.4373      -5.39514             0       8.76215             0             0      0.190018   1.62139e-15      0.173836        107364        103216        438939   2.97068e-15
    0.0415415       289.584       288.632      0.110396       17.7403     -0.157102             0       7.51416       1.15533             0       16.5226      -5.55066             0       8.06916             0             0      0.189825   1.66674e-15      0.174674        107371        103217        439206   3.05378e-15
     0.042042       289.574       288.629      0.106606       17.6343    0.00811116             0       7.47016       1.11141             0       18.6321       -5.6916             0       7.37326             0             0      0.189615   1.71255e-15      0.175588        107379        103219        439459    3.1377e-15
    0.0425425       289.573       288.625       0.10345       17.5187       0.14889             0       7.39071       1.06093             0       21.0052       -5.6734             0       6.64558             0             0      0.189214   1.76331e-15      0.177333        107387        103220        439569   3.23072e-15
     0.043043       289.573        288.62      0.100454       17.3912      0.281753             0       7.30848       1.00981             0       23.3818      -5.64344             0       5.92081             0             0      0.188793    1.8141e-15      0.179162        107395        103222        439673   3.32376e-15
    0.0435435       289.584       288.616     0.0991537        17.136      0.330495             0        7.1967      0.951918             0       25.7961      -5.48839             0       5.22713             0             0      0.188166   1.86504e-15      0.181886        107403        103223        439707    3.4171e-15
     0.044044       289.596       288.611     0.0980378       16.8563      0.370243             0       7.08242      0.893253             0         28.21      -5.32631             0       4.53938             0             0      0.187539   1.91556e-15      0.184612        107411        103224        439738   3.50966e-15
    0.0445445       289.613       288.607     0.0988326       16.3222      0.316789             0       6.94223      0.826564             0       30.6192       -5.0914             0       3.91319             0             0      0.186906   1.96161e-15      0.187363        107419        103226        439743   3.59404e-15
     0.045045        289.63       288.603     0.0998228       15.7578      0.259073             0       6.79916      0.758993             0       33.0253      -4.85155             0       3.29348             0             0      0.186267   2.00817e-15      0.190141        107427        103227        439744   3.67935e-15
    0.0455455       289.656       288.599      0.102789       14.8872      0.158263             0       6.62693      0.682498             0       35.3987      -4.56174             0       2.73948             0             0      0.185564   2.05983e-15      0.193199        107433        103228        439695   3.77399e-15