#           y             T         TMean   TPrime2Mean           U_x           U_y           U_z       UMean_x       UMean_y       UMean_z UPrime2Mea... UPrime2Mea... UPrime2Mea... UPrime2Mea... UPrime2Mea... UPrime2Mea...            O2           H2O          C3H8             p         pMean   pPrime2Mean           CO2
  1.11022e-19       290.897       288.169      0.263855       33.9621   -9.8919e-15             0       20.6688  -6.62921e-16             0       29.1211  -5.65835e-15             0   3.45163e-16             0             0      0.229721   4.07194e-05   0.000796112        108261        103259        639545   7.46054e-05
  0.000500501       294.541       288.269       1.94869       33.9859    -0.0343225             0       20.6709     0.0547318             0       29.1641    -0.0877777             0     0.0687474             0             0      0.229435   9.73954e-05    0.00145793        108250        103259        639527   0.000178447
     0.001001       298.218        288.37       3.71954       34.0105    -0.0688367             0        20.673      0.109461             0       29.2078     -0.175582             0      0.137624             0             0      0.229146   0.000154819    0.00212169        108238        103259        639508   0.000283657
    0.0015015       318.412       289.005       48.4067       34.4277     -0.199071             0       20.6867      0.162986             0       29.5256     -0.276847             0      0.270925             0             0      0.227754   0.000585095    0.00375665        108213        103259        638927      0.001072
     0.002002       338.802       289.647       95.7016       34.8468     -0.328839             0       20.7004      0.216533             0       29.8457     -0.377913             0      0.404647             0             0      0.226346    0.00102203    0.00539024        108187        103258        638347    0.00187255
    0.0025025       407.928        292.13        792.33       35.7738     -0.342516             0       20.7342      0.275605             0       30.7486      -0.42939             0      0.642988             0             0      0.221101    0.00311747    0.00668082        108175        103258        637941    0.00571178
     0.003003       478.102       294.667       1580.18       36.7127      -0.35695             0       20.7683       0.33468             0        31.666     -0.480764             0      0.882189             0             0      0.215751    0.00525951    0.00795267        108162        103258        637536     0.0096364
    0.0035035       721.986       306.068         17480       39.6362     -0.496927             0       20.8784      0.394246             0        34.991     -0.515088             0       1.26378             0             0      0.192884     0.0151222    0.00612088        108161        103257        637109     0.0277067
     0.004004       966.558       317.465         33397       42.5692     -0.637479             0       20.9886      0.453808             0       38.3293     -0.551057             0       1.64702             0             0      0.169794     0.0250795    0.00428697        108160        103257        636683     0.0459503
    0.0045045       1296.47       328.433         51435       46.6771      -0.84944             0       21.1277      0.512782             0       43.3363     -0.790835             0       2.23543             0             0      0.119086     0.0467601    0.00218906        108159        103256        636323     0.0856731
   0.00500501       1624.33       339.314       69329.7       50.7678      -1.06763             0       21.2661      0.571637             0       48.3344      -1.03316             0       2.82485             0             0     0.0685518     0.0683511   0.000250683        108159        103256        635965      0.125232
   0.00550551       1750.01       341.463         73050       53.1576      -1.90258             0       21.3267      0.618681             0       52.4593      -1.52727             0       3.51378             0             0     0.0353244     0.0810744     0.0141066        108162        103255        635900      0.148543
   0.00600601       1873.69       343.592         76722       55.5261      -2.73654             0       21.3855      0.665839             0       56.5599      -2.01886             0       4.20263             0             0    0.00248072     0.0936178     0.0281404        108164        103254        635832      0.171525
   0.00650651       1833.06       344.002       76415.8       56.1423      -3.48871             0       21.2978      0.722442             0       58.6631      -2.30335             0       4.88449             0             0     0.0012328     0.0913537     0.0568227        108161        103253        635565      0.167377
   0.00700701       1792.35       344.396       76071.8        56.753       -4.2399             0       21.2078      0.779072             0       60.7499      -2.58593             0       5.56668             0             0   2.33953e-06     0.0890831     0.0854956        108159        103253        635298      0.163217
   0.00750751       1745.59       343.656       73064.9       56.9723      -4.92238             0       20.9482      0.837624             0       61.6797      -2.73374             0       6.27234             0             0   1.16139e-06     0.0863572      0.113501        108154        103252        635003      0.158223
   0.00800801          1699       342.917       70061.6       57.1823      -5.60248             0       20.6864      0.896164             0       62.6104      -2.87874             0       6.97738             0             0   2.09234e-09     0.0836372      0.141446        108149        103251        634700      0.153239
   0.00850851       1662.41       342.214       67278.7       56.8187      -6.13655             0       20.2888      0.953871             0        63.596      -2.85101             0       7.64481             0             0    1.0376e-09     0.0812739      0.165717        108142        103250        633956      0.148909
   0.00900901       1625.94       341.551       64566.9       56.4399      -6.67016             0       19.8896       1.01116             0       64.5806      -2.82819             0       8.31532             0             0    1.8198e-12      0.078921      0.189882        108134        103250        633211      0.144598
   0.00950951       1595.49       342.982       65731.9       55.2415      -7.17883             0        19.406       1.04569             0       65.5145      -3.07312             0       9.15336             0             0   9.01541e-13     0.0771305      0.208269        108124        103249        632358      0.141317
      0.01001       1565.31       344.393       66861.4       54.0464      -7.68635             0       18.9224       1.08001             0       66.4524      -3.31796             0       9.99522             0             0   1.65749e-15     0.0753652      0.226396        108113        103248        631501      0.138083
    0.0105105       1548.13       344.754       66246.7        53.018      -8.13774             0       18.4395       1.10442             0       67.5867      -3.55883             0       11.0241             0             0   2.27393e-15     0.0748369      0.231819        108103        103247        630392      0.137115
     0.011011       1531.34       345.069         65561       52.0047       -8.5937             0       17.9568       1.12834             0       68.7336      -3.80613             0       12.0546             0             0   4.41165e-15     0.0743374      0.236948        108093        103246        629282        0.1362
    0.0115115       1531.58       343.323       61714.7        51.658      -9.25235             0       17.4851       1.13056             0       70.4382      -4.33972             0       13.1561             0             0   7.41771e-14     0.0751149      0.228963        108084        103244        628079      0.137624
     0.012012        1532.3       341.605       57939.9       51.3345      -9.91706             0       17.0133       1.13281             0       72.1758      -4.87103             0       14.2568             0             0   2.42798e-13     0.0759114      0.220783        108074        103243        626881      0.139084
    0.0125125       1552.41       341.063       57074.8       51.9539      -10.8282             0       16.5356       1.13632             0        75.258      -5.30907             0       15.3285             0             0   4.43153e-12     0.0774851      0.204622        108063        103241        625880      0.141967
     0.013013       1572.81       340.545       56263.7       52.5753      -11.7372             0       16.0597       1.13941             0       78.3472      -5.75134             0       16.4063             0             0   1.32296e-11      0.079061      0.188439        108053        103240        624883      0.144855
    0.0135135       1604.19       340.913       57477.2       53.2772      -12.5698             0       15.6453        1.1264             0        81.695      -6.35198             0       17.7147             0             0     1.947e-10     0.0807233      0.171369        108043        103238        624058        0.1479
     0.014014       1635.32       341.303       58739.1       53.9546      -13.3958             0       15.2338       1.11286             0       85.0284      -6.95725             0        19.029             0             0    5.8363e-10     0.0823627      0.154534        108032        103236        623231      0.150904
    0.0145145        1657.9       342.484       61681.3       53.7812      -13.9919             0       14.9232       1.08096             0       87.8588      -7.72327             0       20.5457             0             0   8.17436e-09     0.0832068      0.145866        108016        103234        622339       0.15245
     0.015015       1680.09       343.669       64642.9       53.5571      -14.5586             0       14.6137       1.04942             0       90.6493      -8.47431             0       22.0589             0             0   2.25772e-08     0.0840323       0.13739        108000        103231        621455      0.153963
    0.0155155       1689.99       345.016         68228       51.6935      -14.1716             0       14.3354       1.02956             0       92.1505      -8.74078             0       23.4571             0             0   2.57238e-07     0.0842556      0.135097        107984        103229        620821      0.154372
     0.016016       1699.81        346.35       71791.3       49.8523      -13.7933             0       14.0581       1.01014             0       93.6547      -9.01408             0       24.8561             0             0   6.70184e-07     0.0844759      0.132834        107968        103227        620189      0.154776
    0.0165165       1706.93       347.286       74694.5       48.6907      -13.6735             0       13.8087       1.00373             0        95.252      -9.49371             0       26.2826             0             0   6.47627e-06     0.0846071      0.131462        107950        103225        619600      0.155016
     0.017017       1714.19       348.209       77568.9       47.6515      -13.5389             0        13.561      0.998307             0        96.912         -9.98             0       27.7036             0             0   1.45452e-05     0.0847373      0.130092        107933        103223        619008      0.155254
    0.0175175       1725.09        348.73       79628.5       50.0886      -12.9814             0       13.3622        1.0211             0       100.351      -10.6553             0       28.9662             0             0   8.69046e-05      0.084836      0.128766        107911        103221        618328      0.155435
     0.018018       1736.68       349.246         81680       52.6198      -12.4465             0       13.1641       1.04466             0       103.854      -11.3464             0       30.2334             0             0   0.000156465     0.0849376      0.127422        107889        103219        617704      0.155622
    0.0185185       1766.44       349.618       83515.6       57.6703      -12.5184             0       12.9856       1.08863             0       109.053      -12.4614             0       31.6226             0             0   0.000151076     0.0851158      0.125623        107888        103217        618594      0.155948
     0.019019       1796.02        349.98       85326.4        62.677      -12.6442             0       12.8056       1.13335             0       114.174      -13.5751             0        33.021             0             0   0.000143149     0.0852949      0.123825        107886        103215        619525      0.156276
    0.0195195        1820.9       350.084       86511.1        66.572      -14.1319             0         12.59       1.19705             0       117.316      -14.6569             0        34.652             0             0   7.09595e-05     0.0854971      0.122071        107892        103214        621499      0.156647
      0.02002       1844.81       350.169       87642.4       70.2465      -15.5665             0       12.3718       1.26206             0       120.216      -15.6924             0       36.2756             0             0   1.76255e-06     0.0856951      0.120345        107897        103212        623411      0.157009
    0.0205205       1845.71       349.782       87490.4       68.6253      -15.7256             0       12.0922       1.35857             0       117.328      -15.6166             0       37.7232             0             0   4.38664e-06     0.0857945      0.119314        107883        103210        623849      0.157192
     0.021021       1846.47       349.379       87304.4        66.966      -15.8625             0       11.8122       1.45679             0       114.323      -15.4987             0       39.1636             0             0   9.52943e-06     0.0858914      0.118297        107869        103209        624312      0.157369
    0.0215215       1843.95       348.626       86343.4       64.4354       -15.495             0        11.522        1.5939             0       108.647      -14.4196             0       40.4412             0             0   7.21224e-05     0.0859295       0.11763        107860        103208        625346      0.157439
     0.022022       1841.16        347.86       85354.6       62.0211      -15.1516             0       11.2349       1.73178             0       103.108      -13.3743             0       41.7355             0             0   0.000183301     0.0859459      0.116973        107850        103206        626257      0.157469
    0.0225225       1832.69       346.808       83762.2        62.135      -15.3307             0        11.015       1.88645             0       100.555       -13.062             0       43.3929             0             0    0.00135012     0.0854945      0.116528        107829        103205        624511      0.156642
     0.023023        1822.4       345.715       82057.5       62.1115      -15.4034             0       10.7956       2.04387             0       97.9044      -12.6805             0        45.038             0             0    0.00276705     0.0849314      0.116142        107812        103204        622999       0.15561
    0.0235235       1774.71       343.759       78023.7       59.2402      -13.2708             0       10.5842       2.25823             0       93.2502      -10.8646             0       46.4287             0             0    0.00937135     0.0820513      0.116988        107861        103203        626324      0.150333
     0.024024       1719.49       341.578       73586.9       56.1384      -10.9523             0       10.3688       2.47829             0       88.2122      -8.87974             0       47.8257             0             0     0.0169059     0.0787534      0.118079        107912        103203        630104      0.144291
    0.0245245       1514.94       334.921       61154.4       48.4672      -4.94841             0       10.0737       2.81145             0       75.5632      -3.54244             0       49.3486             0             0     0.0428898     0.0671697      0.124012        108016        103204        642927      0.123067
     0.025025       1305.41       328.089       48526.5       40.9001       1.01031             0       9.78097       3.14447             0       63.0574       1.72989             0       50.9168             0             0     0.0694575     0.0553254      0.130084        108116        103205        655422      0.101366
    0.0255255       1001.05       317.958         32188       35.3114       6.11053             0       9.53371        3.4748             0       53.2733       5.76795             0       53.3455             0             0      0.107117     0.0385272      0.138786        108150        103205        661698      0.070589
     0.026026       703.841       308.041         16310       29.9244       11.0405             0       9.29148       3.80117             0       43.8238       9.66336             0        55.747             0             0      0.143879     0.0221348      0.147221        108181        103206        667664     0.0405551
    0.0265265        536.93       302.023       8828.82       28.2154       12.8669             0       9.14116       4.05541             0       40.4728        10.958             0       57.6539             0             0      0.164297      0.013141      0.150771        108168        103206        667972     0.0240767
     0.027027       377.315       296.247       1720.71       26.5403       14.6318             0       8.99194       4.30891             0       37.2127       12.2453             0       59.5294             0             0      0.183839    0.00454462      0.154046        108156        103206        668193    0.00832659
    0.0275275       345.501       294.707       1149.04       25.4571       15.3177             0       8.86214       4.54952             0       35.5438        13.406             0       60.8573             0             0       0.18805    0.00291116      0.152506        108147        103206        666887    0.00533379
     0.028028       315.018        293.22       603.382       24.3833       15.9862             0         8.732       4.79032             0       33.9361       14.5831             0       62.1753             0             0      0.192124    0.00134488      0.150872        108138        103206        665529    0.00246407
    0.0285285       306.966       292.655        496.08       23.4678        16.361             0       8.59629       5.03435             0       33.3594       16.0354             0       63.3275             0             0      0.193893   0.000910946      0.147633        108142        103206        663295    0.00166902
     0.029029       299.185       292.104       392.066       22.5298       16.7358             0       8.45949       5.27831             0        32.819       17.4866             0       64.4616             0             0      0.195634   0.000491403      0.144373        108144        103206        661047   0.000900341
    0.0295295       295.808       291.771       341.453       21.2282       17.1074             0       8.30513       5.52092             0       32.8685       18.9188             0        65.304             0             0      0.196903   0.000305624      0.140763        108120        103207        658576   0.000559961
      0.03003       292.581       291.446       292.004       19.9261       17.4832             0       8.15015       5.76347             0       32.9464       20.3414             0       66.1308             0             0      0.198145   0.000128273      0.137183        108095        103207        656017    0.00023502
    0.0305305       291.691       291.225       260.785       18.6185       17.9248             0        7.9854       6.00491             0       33.4703       21.6148             0       66.7121             0             0      0.198965   8.29396e-05      0.134081        108061        103208        652094   0.000151961
     0.031031       290.839       291.008       230.173       17.3107       18.3644             0       7.82044       6.24594             0       34.0166       22.8691             0       67.2765             0             0      0.199772   3.97204e-05      0.131019        108028        103208        648151   7.27752e-05
    0.0315315       290.568       290.851       208.763       16.0007       18.7748             0       7.65217       6.48089             0       34.9019       23.8357             0       67.5834             0             0      0.200363    2.8489e-05      0.128564        108003        103209        643920   5.21972e-05
     0.032032       290.308       290.697        187.75       14.6982       19.1821             0       7.48372       6.71501             0       35.8076       24.7804             0       67.8771             0             0      0.200948   1.77543e-05      0.126128        107979        103210        639688   3.25292e-05
    0.0325325        290.21       290.578       172.553       13.5038       19.5422             0       7.31274       6.93682             0       37.0117       25.4026             0       67.9773             0             0      0.201452   1.42826e-05      0.123974        107952        103211        635443   2.61684e-05
     0.033033       290.116       290.461        157.71       12.3175       19.8942             0       7.14134       7.15708             0       38.2316       25.9999             0       68.0619             0             0      0.201953   1.09392e-05      0.121832        107926        103212        631225   2.00427e-05
    0.0335335       290.074       290.377       147.866       11.2458       20.1313             0       6.96413       7.35533             0       39.6741       26.2438             0       67.9269             0             0      0.202413   9.41166e-06      0.119848        107906        103213        627396   1.72439e-05
     0.034034       290.034       290.294       138.267       10.1837       20.3599             0       6.78609       7.55118             0       41.1229       26.4582             0       67.7704             0             0      0.202875   7.92136e-06      0.117854        107886        103215        623617   1.45134e-05
    0.0345345       290.013       290.237       132.033       9.25358       20.4727             0       6.59668       7.71404             0       42.6574       26.2671             0       67.3202             0             0      0.203367   6.94155e-06      0.115721        107870        103217        620538   1.27182e-05
     0.035035       289.993        290.18       125.933       8.33198        20.578             0       6.40578       7.87355             0       44.1891       26.0431             0       66.8417             0             0       0.20386   5.99271e-06       0.11359        107854        103218        617519   1.09798e-05
    0.0355355       289.985       290.138       121.623       7.52424       20.5825             0       6.19499       7.98838             0       45.6852       25.3825             0       65.9889             0             0      0.204346    5.4554e-06      0.111481        107839        103221        615297   9.99531e-06
     0.036036       289.978       290.096       117.372       6.71971       20.5797             0       5.98183       8.09898             0       47.1742       24.6881             0       65.1025             0             0      0.204819   4.95027e-06      0.109431        107824        103223        613142   9.06981e-06
    0.0365365       289.981       290.061       113.892        5.9567       20.4826             0       5.73816       8.15499             0        48.571       23.5588             0       63.7826             0             0      0.205114   4.85991e-06      0.108146        107811        103226        611855   8.90426e-06
     0.037037       289.985       290.027       110.453       5.18893       20.3807             0       5.49143       8.20618             0       49.9593        22.398             0       62.4254             0             0      0.205404    4.7872e-06      0.106888        107798        103229        610633   8.77105e-06
    0.0375375       289.999       289.999       107.517       4.36169       20.2173             0       5.20634       8.19705             0       51.2403       20.8418             0       60.6031             0             0      0.205618   4.93541e-06      0.105956        107792        103233        610231   9.04259e-06
     0.038038       290.014       289.971       104.621       3.52937       20.0486             0       4.91765       8.18289             0       52.5163        19.262             0       58.7425             0             0      0.205833   5.11905e-06      0.105021        107787        103236        609896   9.37905e-06
    0.0385385       290.052       289.949       102.204       2.63543       19.8141             0       4.58518        8.1077             0       53.7316       17.3956             0       56.4165             0             0      0.206056    5.7335e-06      0.104045        107795        103240        610375   1.05048e-05
     0.039039       290.091       289.928       99.8052       1.74797       19.5713             0       4.24903       8.02744             0       54.9465       15.5175             0       54.0563             0             0      0.206281   6.37673e-06      0.103059        107804        103244        610915   1.16834e-05
    0.0395395        290.15       289.912       97.6378      0.937123       19.2296             0       3.86937       7.88737             0        56.158       13.5015             0        51.293             0             0      0.206535   7.36025e-06      0.101944        107826        103249        612194   1.34853e-05
      0.04004       290.213       289.897       95.4962      0.148935       18.8734             0       3.48718       7.74207             0       57.3562       11.4802             0       48.5065             0             0      0.206792   8.32224e-06      0.100818        107849        103254        613527   1.52479e-05
    0.0405405       290.319       289.889       93.6522     -0.378689       18.3502             0       3.07599        7.5367             0        58.402       9.39715             0       45.4542             0             0      0.207076   9.03675e-06     0.0995763        107878        103259        615467    1.6557e-05
     0.041041       290.431       289.881       91.8228     -0.889515       17.8126             0        2.6645       7.32607             0       59.4024       7.31106             0       42.3869             0             0      0.207364   9.75334e-06     0.0983171        107908        103264        617452   1.78699e-05
    0.0415415       290.625       289.878       90.1556      -1.21229       17.1145             0        2.2495       7.05653             0       59.8942       5.19027             0       39.1529             0             0      0.207696   1.04932e-05     0.0968659        107943        103269        619923   1.92254e-05
     0.042042       290.834       289.875       88.4613      -1.54863       16.4042             0       1.83588        6.7821             0       60.3292       3.07668             0       35.9102             0             0      0.208031   1.14133e-05     0.0953967        107979        103275        622428   2.09113e-05
    0.0425425       291.208       289.873        86.472       -2.0328       15.5625             0        1.4373       6.45444             0       60.1456       1.04165             0       32.5735             0             0      0.208407   1.42997e-05     0.0937321        108015        103280        625301   2.61996e-05
     0.043043       291.661        289.87       84.4378      -2.55256       14.7165             0       1.04018       6.12296             0       59.9396     -0.969803             0       29.2394             0             0      0.208796   1.73957e-05     0.0920089        108052        103285        628196   3.18722e-05
    0.0435435       292.962       289.867       81.9261      -3.45047       13.8255             0      0.658545       5.75091             0       59.4963      -2.73068             0       25.9348             0             0      0.209324   2.27203e-05     0.0896626        108092        103290        631327   4.16278e-05
     0.044044       294.512       289.862       79.3651      -4.35105       12.9438             0      0.279738       5.37557             0       59.0287       -4.4443             0       22.6478             0             0      0.209862   2.84318e-05     0.0872622        108131        103296        634456   5.20924e-05
    0.0445445       298.643       289.848       76.2931      -5.27931       12.1578             0    -0.0697549       4.96604             0       58.3096      -5.66803             0       19.5432             0             0       0.21052   3.81532e-05     0.0843008        108164        103301        637553   6.99037e-05
     0.045045       302.969        289.83       73.0634      -6.20699       11.3739             0     -0.413633       4.55286             0       57.5207      -6.82068             0       16.4677             0             0      0.211143   4.88267e-05      0.081487        108194        103306        640619   8.94597e-05
    0.0455455       309.265       289.771       68.2386      -7.12887       10.6113             0     -0.700742        4.1028             0       56.0258      -7.25462             0       13.6864             0             0      0.211399   6.91279e-05     0.0801656        108200        103310        643374   0.000126655