#           y             T         TMean   TPrime2Mean           U_x           U_y           U_z       UMean_x       UMean_y       UMean_z UPrime2Mea... UPrime2Mea... UPrime2Mea... UPrime2Mea... UPrime2Mea... UPrime2Mea...            O2           H2O          C3H8             p         pMean   pPrime2Mean           CO2
            0       290.102       288.071      0.129442       22.0186             0             0       22.7736             0             0        5.9118             0             0             0             0             0          0.23   1.21146e-13   1.19224e-07        109716        103264        753175   2.21961e-13
  0.000500501       290.102       288.071      0.129409       21.9976     -0.120948             0       22.7761    -0.0110182             0       5.93088      0.128364             0     0.0605403             0             0          0.23   1.85435e-12   9.48001e-07        109718        103263        752594   3.39751e-12
     0.001001       290.103       288.071      0.129376       21.9764     -0.241878             0       22.7785    -0.0220291             0       5.95012      0.256734             0      0.121183             0             0          0.23   3.70166e-12     1.801e-06        109720        103263        752012   6.78212e-12
    0.0015015       290.106       288.071       0.12934        21.875     -0.353904             0       22.7722    -0.0294308             0       6.04453      0.388399             0      0.233003             0             0      0.229997   6.24875e-11   1.47383e-05        109724        103263        750916   1.14489e-10
     0.002002       290.108       288.071      0.129305       21.7734     -0.465824             0       22.7659    -0.0368591             0       6.13927      0.520221             0      0.345447             0             0      0.229994   1.27688e-10    2.8202e-05        109727        103264        749818   2.33948e-10
    0.0025025       290.118       288.072      0.129525       21.6145     -0.551356             0       22.7653     -0.050903             0       6.31488      0.691295             0      0.613335             0             0       0.22996   1.79006e-09   0.000172736        109733        103263        747916   3.27973e-09
     0.003003       290.129       288.072      0.129805       21.4548     -0.636656             0       22.7646    -0.0648675             0       6.49204      0.862384             0      0.881977             0             0      0.229926   3.64191e-09   0.000323316        109738        103263        746014   6.67265e-09
    0.0035035       290.231        288.08      0.140209       21.1725     -0.683607             0       22.7496    -0.0656756             0       6.92579        1.0361             0       1.27554             0             0      0.229661   3.68828e-08     0.0014757        109739        103263        744182   6.75762e-08
     0.004004       290.338       288.088      0.153457       20.8899      -0.73005             0       22.7346    -0.0666021             0       7.36207       1.21136             0       1.67353             0             0      0.229388   7.30035e-08    0.00266107        109740        103263        742347   1.33756e-07
    0.0045045       291.162       288.155      0.519337       20.5665     -0.713646             0        22.734    -0.0822021             0       8.11214       1.57807             0       2.62198             0             0      0.228174   4.66214e-07     0.0079362        109735        103262        740005   8.54191e-07
   0.00500501       292.021       288.225      0.963377       20.2421     -0.696085             0       22.7328    -0.0975664             0       8.87045         1.944             0       3.57798             0             0      0.226938   8.83132e-07     0.0133055        109729        103262        737674   1.61806e-06
   0.00550551       296.304       288.604       9.14518       19.8163     -0.564072             0       22.6799    -0.0896012             0       10.4447       2.23207             0       5.28139             0             0      0.223553   3.64712e-06     0.0279939        109715        103260        736490   6.68221e-06
   0.00600601       300.675       288.995        18.239       19.3959     -0.431967             0       22.6271    -0.0821587             0       12.0143       2.52757             0       7.01347             0             0      0.220155   6.50739e-06     0.0427375        109701        103259        735316   1.19227e-05
   0.00650651       312.346       290.263       102.426        19.422     -0.292262             0       22.5837      -0.11776             0       13.1968       3.43424             0       11.1067             0             0      0.215695   1.72947e-05      0.062016        109684        103255        735068    3.1687e-05
   0.00700701       324.189       291.561       192.973        19.446     -0.142298             0       22.5399     -0.152339             0       14.3545       4.33567             0       15.2181             0             0       0.21123   2.84977e-05     0.0813144        109667        103251        734865   5.22132e-05
   0.00750751       348.174       294.923       731.437       19.3236      0.730184             0        22.474     -0.114906             0       13.7625       4.86846             0       20.6159             0             0      0.206376   6.89855e-05      0.102004        109644        103246        737851   0.000126394
   0.00800801       372.725       298.434       1387.66       19.1775        1.6076             0       22.3977    -0.0779745             0       13.1639       5.35837             0       26.0244             0             0      0.201506   0.000113682       0.12272        109620        103241        740815   0.000208287
   0.00850851       432.145       311.203       9286.11       17.5667        2.7885             0       21.6861    -0.0719281             0       12.1579       3.21107             0       32.0956             0             0      0.195654   0.000417245      0.145047        109590        103234        742449    0.00076447
   0.00900901       491.215       323.938         17169       15.9915       3.96741             0       20.9756    -0.0641473             0       11.1508       1.05194             0       38.1433             0             0      0.189887    0.00071496      0.167067        109560        103227        743952    0.00130994
   0.00950951       531.246       334.866       24205.7       16.3572       5.03713             0       20.3302     0.0382537             0       10.0807      -1.75225             0       42.9147             0             0      0.188726   0.000693688       0.17233        109520        103223        738330    0.00127097
      0.01001       570.413       345.603       31102.4       16.7439       6.09417             0       19.6799      0.143965             0        9.0348      -4.51348             0       47.5876             0             0        0.1876   0.000666621      0.177503        109480        103219        732636    0.00122137
    0.0105105       567.213        346.95       31143.3       18.1577        6.5294             0       18.7899      0.411867             0       9.17275      -5.16935             0       47.4324             0             0       0.18816   0.000355592      0.178263        109437        103223        723430   0.000651512
     0.011011       564.039       348.286       31197.4       19.5401       6.96204             0        17.885      0.677857             0       9.35829      -5.77799             0       47.1932             0             0       0.18857   5.09562e-05      0.179608        109394        103227        714202   9.33613e-05
    0.0115115       562.005       349.184       31837.8       19.5264       7.27961             0       16.3208       0.85885             0       11.6593      -4.28686             0       43.2142             0             0      0.182329    3.0498e-05      0.206951        109359        103234        703955   5.58781e-05
     0.012012       559.982       350.087       32488.7       19.5089       7.58302             0       14.7579       1.03718             0       13.9479      -2.77079             0       39.2082             0             0      0.175934   1.05024e-05      0.234963        109323        103242        693730   1.92423e-05
    0.0125125       558.365       351.273       33568.3       19.3433       7.30998             0       13.2518       1.10741             0       15.7268     -0.240712             0        34.103             0             0      0.163245   9.31448e-06      0.290144        109281        103248        684388   1.70659e-05
     0.013013       556.917       352.445       34639.5        19.169       7.02216             0       11.7671       1.17473             0       17.4343       2.26182             0       29.0467             0             0       0.15039   8.33927e-06      0.346045        109240        103254        675109   1.52791e-05
    0.0135135       561.841       353.104       35399.6       18.6666       6.18049             0       11.0847       1.13347             0       16.4641       3.73227             0       25.8201             0             0      0.131326   1.53309e-05       0.42886        109201        103256        668212    2.8089e-05
     0.014014       566.681       353.708       36119.6       18.1546       5.35149             0       10.4251       1.09368             0       15.4579       5.15044             0       22.6288             0             0      0.112292   2.28362e-05      0.511541        109162        103259        661374   4.18401e-05
    0.0145145       568.642       352.392       35447.3       17.3103       4.96199             0       10.5595       1.10499             0       13.2021        4.7539             0       20.6622             0             0      0.094292   4.81757e-05       0.58954        109124        103260        656626   8.82668e-05
     0.015015       569.983       351.044       34726.7       16.5019       4.58309             0       10.6931       1.11484             0        10.998       4.35797             0       18.7168             0             0     0.0765245   7.33204e-05      0.666531        109085        103261        651917   0.000134337
    0.0155155       551.305       348.663       32442.9        16.858       4.54712             0       10.8061       1.07721             0       10.4648       3.98175             0       17.4538             0             0      0.066263   9.21687e-05      0.710953        109044        103260        648494    0.00016887
     0.016016        532.25       346.148       30069.9       17.2167       4.53771             0       10.9335       1.03712             0        9.9832       3.57879             0       16.2176             0             0     0.0562475   0.000110698      0.754308        109004        103260        645106    0.00020282
    0.0165165       501.836       339.585       24997.5       17.6547        5.3322             0       11.5003      0.922519             0       11.0621       2.36677             0       15.7924             0             0     0.0536746   0.000119589      0.765404        108962        103259        642784   0.000219109
     0.017017       471.898        332.93         19906       18.0333       6.11936             0       12.1246      0.802901             0       12.1667       1.09389             0        15.367             0             0     0.0514023   0.000129531      0.775181        108920        103258        640472   0.000237325
    0.0175175       455.456       323.681       14272.5       16.7277       6.69862             0        14.383      0.540649             0       14.0019      -1.90829             0       14.9356             0             0     0.0576714   0.000169361      0.747515        108876        103258        638443   0.000310302
     0.018018       439.358       314.538       8732.88       15.4068       7.27804             0        16.641      0.286066             0       15.8352      -4.87004             0       14.5107             0             0     0.0639862    0.00020823       0.71966        108831        103257        636407   0.000381517
    0.0185185       432.463       308.216       5704.85       13.6753       7.86206             0       18.8875      0.236841             0       17.6157      -6.74936             0       14.2571             0             0      0.071526   0.000221352      0.686744        108793        103256        634225   0.000405558
     0.019019       425.108       302.008        2755.4        11.985       8.44676             0       21.0765      0.190592             0       19.3373      -8.55536             0       13.9999             0             0     0.0790453   0.000232021      0.653941        108755        103255        632048   0.000425106
    0.0195195       406.121        298.67       1795.47       11.3344       9.04854             0       21.8091      0.219679             0       19.5669      -8.50527             0       13.6531             0             0     0.0860489   0.000180602      0.624019        108733        103255        630010   0.000330897
      0.02002       386.912       295.392       861.838       10.7642       9.65501             0       22.5267      0.248823             0       19.7454      -8.43804             0       13.3231             0             0     0.0933098   0.000129386      0.592975        108712        103256        627989    0.00023706
    0.0205205       362.362       293.547       559.566       12.1231       10.3742             0       22.8832      0.279356             0       18.6973      -7.95916             0       13.3944             0             0      0.106746   8.30408e-05      0.535032        108692        103255        626413   0.000152146
     0.021021       338.233       291.737       265.802       13.5163       11.0888             0        23.226      0.314619             0       17.6395      -7.44929             0       13.5219             0             0      0.120355       3.8e-05      0.476326        108673        103255        624843    6.9623e-05
    0.0215215       323.689       290.731       166.083        15.692       11.6963             0       23.2563      0.457759             0       16.3621      -6.23244             0       14.9304             0             0      0.137898   2.27229e-05      0.400209        108654        103253        623422   4.16326e-05
     0.022022       309.501       289.749       69.5608       17.8388       12.2774             0       23.2637       0.60084             0       15.1262      -4.96234             0        16.361             0             0      0.155377   7.96572e-06      0.324367        108636        103251        622025   1.45947e-05
    0.0225225       303.037       289.281          42.5       19.3577       12.2834             0       22.7738      0.742632             0       14.7924       -2.5353             0       18.2743             0             0      0.171452   4.50415e-06      0.254508        108629        103248        621149   8.25243e-06
     0.023023       296.753       288.826       16.3798         20.86       12.2759             0       22.2357      0.890269             0       14.6185    -0.0119635             0       20.1844             0             0      0.187326   1.17782e-06      0.185528        108623        103245        620260   2.15798e-06
    0.0235235       294.214       288.642       9.76757       22.0203       11.9886             0       20.6977       1.15912             0       17.7589       4.50838             0       22.0295             0             0      0.199004   6.56371e-07      0.134759        108623        103240        619090   1.20259e-06
     0.024024       291.758       288.465       3.40506       23.1478       11.6984             0       19.0969       1.42316             0       21.3114       9.03635             0       23.9405             0             0      0.210405   1.56534e-07     0.0851943        108623        103236        617904     2.868e-07
    0.0245245       290.972       288.421       1.99593        23.623       11.3516             0       16.2514       1.59182             0       33.0353       13.7156             0       27.1592             0             0      0.216312   8.52951e-08     0.0595107        108621        103230        616387   1.56277e-07
     0.025025       290.218       288.381      0.645808       23.9953       10.9715             0       13.4079       1.74496             0       44.9907       18.1735             0       30.4319             0             0         0.222   1.72478e-08      0.034781        108619        103225        614835   3.16012e-08
    0.0255255        290.08       288.391      0.416904       22.4117       9.95809             0       10.6016       1.60334             0        61.347       18.4238             0       34.7339             0             0       0.22352   9.84617e-09     0.0281741        108616        103217        612624     1.804e-08
     0.026026        289.95       288.402      0.198408       20.7512       8.91048             0        7.8445       1.45233             0       77.2774       18.4824             0       38.9765             0             0      0.224933   3.00466e-09      0.022032        108613        103209        610447    5.5051e-09
    0.0265265       289.982       288.417      0.169649       17.6899       7.23931             0        5.9839       1.13014             0       85.4447       15.0463             0       42.1369             0             0      0.224397   6.37473e-09     0.0243615        108607        103201        608878   1.16797e-08
     0.027027       290.015       288.432      0.142305       14.6675       5.56791             0       4.15499      0.802474             0       93.0187       11.5605             0        45.224             0             0      0.223742   1.10856e-08     0.0272106        108601        103193        607351   2.03109e-08
    0.0275275       290.067       288.445      0.139754       12.3245       3.89262             0       2.88123      0.379034             0        90.199        7.2019             0       47.0271             0             0      0.220993   3.92857e-08     0.0391623        108592        103185        606583   7.19787e-08
     0.028028       290.116       288.458      0.137249       10.1019       2.25348             0       1.62976    -0.0448114             0       87.1149       2.88063             0       48.7571             0             0       0.21822   7.03982e-08     0.0512164        108582        103176        605809   1.28983e-07
    0.0285285       290.127       288.468      0.135521       9.90629       1.22399             0      0.753864     -0.475468             0       79.5729     -0.812294             0       49.2567             0             0      0.215051   1.50608e-07     0.0649973        108567        103169        604943   2.75941e-07
     0.029029       290.137       288.478      0.133716       9.78657      0.209994             0       -0.1107     -0.902482             0       71.9879      -4.40482             0       49.6849             0             0       0.21202   2.35829e-07     0.0781719        108551        103162        603991   4.32082e-07
    0.0295295       290.133       288.483       0.13064       10.8991     -0.552294             0     -0.791251      -1.27035             0       63.7047      -6.36674             0       48.9536             0             0      0.211255   4.02448e-07     0.0814992        108527        103157        601639    7.3736e-07
      0.03003       290.132       288.489      0.127604       12.0106      -1.32223             0      -1.46458      -1.63446             0        55.472      -8.23352             0       48.1655             0             0      0.210612   5.78348e-07     0.0842932        108501        103151        599158   1.05964e-06
    0.0305305       290.188       288.494      0.125184        13.107      -2.21204             0      -2.02481      -1.93948             0       48.0326      -8.60973             0       46.4875             0             0       0.21189   8.99653e-07     0.0787315        108464        103148        594661   1.64833e-06
     0.031031       290.248       288.499      0.122987       14.1653      -3.10384             0      -2.57915      -2.23908             0       40.7616      -8.91297             0       44.7698             0             0      0.213195   1.22701e-06     0.0730538        108425        103145        590090    2.2481e-06
    0.0315315       290.377       288.503      0.124158       14.6482      -4.02587             0      -3.04455      -2.45656             0       36.0377      -8.11222             0       42.4519             0             0      0.214904   1.64587e-06     0.0656206        108373        103144        584395   3.01554e-06
     0.032032       290.506       288.508      0.125556       15.0819       -4.9467             0      -3.50043      -2.66887             0       31.5068      -7.28405             0       40.1176             0             0      0.216569   2.05946e-06     0.0583767        108320        103144        578751   3.77331e-06
    0.0325325       290.652       288.511      0.130275       14.7972       -5.8498             0      -3.81725      -2.80572             0        29.799      -6.05482             0        37.542             0             0      0.217598   2.39593e-06     0.0539014        108256        103145        573843   4.38978e-06
     0.033033       290.796       288.515      0.135063       14.4605      -6.74436             0       -4.1229      -2.93774             0       28.2048      -4.82966             0        34.966             0             0      0.218591   2.72143e-06     0.0495784        108192        103147        569119   4.98617e-06
    0.0335335        290.91       288.517      0.140836       13.3886      -7.51814             0      -4.27051      -3.00134             0       28.2178      -3.66203             0       32.3831             0             0      0.219089   2.89186e-06     0.0474117        108122        103151        567006   5.29843e-06
     0.034034        291.02       288.519      0.146552       12.2774       -8.2832             0      -4.40776       -3.0617             0       28.2605      -2.50654             0       29.8166             0             0      0.219575   3.04909e-06     0.0452956        108053        103154        565127    5.5865e-06
    0.0345345       291.082       288.521      0.151504       10.6284       -8.9288             0      -4.40308      -3.07764             0       28.7084      -1.51726             0       27.4751             0             0      0.219903   3.02528e-06     0.0438724        107988        103158        566448   5.54288e-06
     0.035035        291.14       288.523      0.156358       8.95096       -9.5647             0      -4.39099      -3.09055             0       29.1278      -0.54049             0       25.1548             0             0      0.220226   2.99056e-06     0.0424663        107923        103162        567985   5.47926e-06
    0.0355355       291.143       288.527       0.15992       6.89615      -10.0718             0      -4.28044      -3.06317             0        29.167        0.2701             0       23.1168             0             0      0.220498   2.81081e-06     0.0412862        107870        103166        572393   5.14992e-06
     0.036036       291.144       288.531      0.163416       4.82759      -10.5687             0       -4.1634      -3.03261             0       29.1434       1.05352             0       21.1001             0             0       0.22076    2.6319e-06     0.0401489        107817        103170        576986   4.82213e-06
    0.0365365       291.127       288.539      0.166071       2.58187      -10.9347             0      -3.96277      -2.96102             0       28.3088        1.4868             0       19.3571             0             0      0.220895    2.4638e-06     0.0395618        107782        103174        583971   4.51414e-06
     0.037037       291.112       288.546      0.168898      0.339713      -11.2863             0      -3.75719      -2.88583             0       27.4206       1.89147             0       17.6401             0             0      0.221009   2.31428e-06     0.0390706        107748        103178        591100   4.24019e-06
    0.0375375        291.14       288.556      0.173872      -1.85781      -11.4573             0      -3.48965      -2.76571             0       25.8603       1.93819             0       16.2472             0             0      0.220846   2.39715e-06     0.0397793        107733        103181        600027   4.39202e-06
     0.038038       291.176       288.565      0.179256      -4.03375      -11.6173             0      -3.21787      -2.64296             0       24.3012       1.97368             0       14.8823             0             0      0.220665   2.51348e-06     0.0405619        107719        103183        609037   4.60517e-06
    0.0385385       291.317       288.575       0.18964      -5.94729      -11.6423             0      -2.89468      -2.48815             0       22.7554       1.87266             0       13.8571             0             0      0.220277   3.03667e-06     0.0422437        107722        103186        619043   5.56374e-06
     0.039039       291.469       288.584      0.200401      -7.83657      -11.6639             0      -2.56873      -2.33181             0       21.2517       1.77237             0       12.8523             0             0      0.219876   3.60547e-06     0.0439825        107725        103188        629058    6.6059e-06
    0.0395395       291.748       288.592      0.215628      -9.43916      -11.6463             0      -2.21016      -2.15735             0       20.2458       1.68081             0       12.0882             0             0      0.219318   4.71357e-06     0.0463957        107739        103190        639183   8.63614e-06
      0.04004       292.033       288.599      0.230749      -11.0189      -11.6259             0      -1.84888      -1.98273             0       19.2749       1.58891             0       11.3286             0             0      0.218742   5.87859e-06     0.0488893        107753        103192        649259   1.07707e-05
    0.0405405       292.391       288.604      0.244653      -12.3363      -11.5737             0      -1.45655      -1.80641             0       18.7056       1.49308             0       10.6224             0             0      0.217951   7.69826e-06     0.0523086        107774        103194        658776   1.41047e-05
     0.041041       292.742       288.609      0.257585      -13.6233      -11.5061             0       -1.0612      -1.63042             0       18.1405       1.39507             0       9.91376             0             0       0.21716   9.53866e-06       0.05573        107794        103196        668192   1.74766e-05
    0.0415415       293.015       288.611      0.259623      -14.5704      -11.2655             0     -0.632015       -1.4581             0       17.6234       1.27266             0       9.17895             0             0      0.216363   1.16111e-05     0.0591746        107817        103198        676469   2.12736e-05
     0.042042       293.269       288.614      0.260166      -15.4707       -10.999             0      -0.20029      -1.28696             0       17.1074        1.1537             0       8.43921             0             0      0.215574   1.36572e-05     0.0625825        107840        103200        684614   2.50226e-05
    0.0425425       293.324       288.615        0.2444      -15.8595      -10.4493             0      0.259123      -1.12866             0       16.6043       1.07232             0       7.64564             0             0      0.214878   1.54173e-05     0.0655897        107862        103202        691320   2.82475e-05
     0.043043       293.335       288.616      0.227579       -16.193      -9.87446             0      0.718275     -0.972033             0       16.1292      0.993505             0       6.85152             0             0      0.214188   1.70174e-05     0.0685742        107883        103204        697870   3.11791e-05
    0.0435435       292.868       288.615      0.199555      -15.9376      -9.03291             0       1.17464     -0.833067             0       15.9517      0.941936             0       6.05151             0             0      0.213557   1.69167e-05     0.0713171        107899        103206        702770   3.09945e-05
     0.044044        292.38       288.613      0.172036      -15.6323      -8.17724             0       1.62941      -0.69602             0       15.8152      0.893752             0       5.25767             0             0      0.212952   1.66003e-05     0.0739527        107914        103208        707523   3.04148e-05
    0.0445445       291.661       288.612      0.149743      -14.8089      -7.17525             0       2.06764     -0.578859             0        16.104      0.880636             0       4.52788             0             0      0.212608   1.40493e-05     0.0754752        107921        103211        710753   2.57408e-05
     0.045045       290.974        288.61      0.128622      -13.9486      -6.16829             0       2.50119     -0.464027             0       16.4251      0.867983             0       3.80876             0             0      0.212283   1.14667e-05     0.0769122        107927        103213        713856   2.10092e-05
    0.0455455         290.6       288.611      0.119341      -12.7141        -5.111             0       2.88742     -0.372745             0       17.0727      0.860013             0       3.19754             0             0      0.212158   8.56611e-06      0.077485        107925        103216        715674   1.56947e-05