#           y             T         TMean   TPrime2Mean           U_x           U_y           U_z       UMean_x       UMean_y       UMean_z UPrime2Mea... UPrime2Mea... UPrime2Mea... UPrime2Mea... UPrime2Mea... UPrime2Mea...            O2           H2O          C3H8             p         pMean   pPrime2Mean           CO2
  1.11022e-19       290.161       288.211      0.244193       37.7456   8.30646e-18             0       17.4132   5.63377e-18             0       44.4536   -2.2716e-17             0   2.45404e-17             0             0      0.227255   0.000401427    0.00780347        108132        103276        605964   0.000735489
  0.000500501       290.537       288.214      0.256869       37.5403     0.0374464             0       17.4168     0.0253976             0       44.3413     -0.102406             0      0.110631             0             0      0.225417   0.000851137     0.0111715        108116        103275        606158    0.00155944
     0.001001       290.931       288.217      0.269986       37.3362     0.0746627             0       17.4205     0.0507961             0       44.2288     -0.204772             0       0.22152             0             0      0.223564    0.00130652     0.0145501        108101        103275        606351    0.00239379
    0.0015015        299.66       288.242      0.503479       37.6803   -0.00293215             0       17.4245     0.0766253             0       44.0273     -0.286903             0      0.461485             0             0      0.213803    0.00459258     0.0232521        108099        103275        606224    0.00841446
     0.002002       308.695       288.267       0.80522       38.0242    -0.0820015             0       17.4285      0.102465             0        43.824     -0.368753             0      0.701941             0             0       0.20398    0.00790715     0.0319267        108096        103275        606100     0.0144874
    0.0025025       393.877       288.417       18.1006       38.3405     -0.528208             0       17.3973      0.130878             0       43.1927     -0.380937             0       1.06437             0             0      0.178964     0.0183214     0.0337972        108142        103274        606578     0.0335683
     0.003003       480.898       288.576       47.3554       38.6606     -0.964722             0       17.3659      0.159301             0        42.562     -0.392399             0       1.42745             0             0      0.153861     0.0287804     0.0355929        108187        103274        607055      0.052731
    0.0035035        872.38       290.144       2057.89       39.5945      0.204632             0       17.3043      0.189442             0       42.0513     -0.284503             0       1.89731             0             0      0.114159      0.046631     0.0249781        108174        103273        607263     0.0854366
     0.004004       1263.27       291.719       4079.68       40.5498       1.38278             0       17.2426      0.219639             0       41.5474     -0.174528             0       2.36838             0             0     0.0745939     0.0644209     0.0143908        108161        103273        607472      0.118031
    0.0045045       1580.38       294.166       7496.11       44.1514       3.65124             0       17.1781      0.256856             0       41.8834      0.193183             0       2.98936             0             0     0.0520037     0.0746883    0.00719972        108111        103272        607746      0.136843
   0.00500501       1894.36       296.602       10896.3       47.7588       5.89893             0       17.1138      0.294053             0       42.2412      0.561696             0       3.61157             0             0     0.0295718     0.0848816   8.04622e-05        108062        103271        608020      0.155519
   0.00550551       1897.01       297.978       12686.1       51.9479       6.08938             0       17.0667      0.329249             0       44.7604       1.00967             0       4.35491             0             0     0.0228125     0.0877442   6.92344e-05        108053        103271        608276      0.160764
   0.00600601       1899.59       299.342       14457.9       56.1214       6.27993             0       17.0195      0.364287             0       47.2826       1.45162             0       5.09814             0             0     0.0160452     0.0906057   0.000103539        108044        103270        608531      0.166007
   0.00650651       1896.63       299.752       14745.6       59.0181       6.47921             0       16.9747      0.386255             0        50.051       1.39726             0       5.83316             0             0    0.00862362     0.0933795     0.0038867        108041        103269        608733      0.171089
   0.00700701       1893.38       300.155       15023.7       61.9018       6.67881             0       16.9299      0.408089             0       52.7963       1.33774             0       6.56895             0             0    0.00129688     0.0960992    0.00781355        108038        103269        608935      0.176072
   0.00750751       1869.34       300.089       14628.8       63.8785       6.90088             0       16.8839      0.420387             0       53.9161       0.91569             0       7.35864             0             0   0.000648984     0.0950055     0.0218596        108043        103268        609164      0.174068
   0.00800801       1845.07       300.018       14227.7       65.8457       7.12059             0       16.8381      0.432733             0       55.0198      0.494485             0       8.15068             0             0   1.13601e-05     0.0938931     0.0360524        108047        103267        609395       0.17203
   0.00850851        1805.7       299.706       13442.9       67.2247       7.19491             0       16.8031      0.448037             0       55.1372       0.12556             0       9.08722             0             0   5.67242e-06     0.0916349     0.0592744        108049        103266        609783      0.167892
   0.00900901        1766.3       299.402       12668.9       68.5969       7.26758             0       16.7678      0.463526             0       55.2534     -0.240682             0       10.0262             0             0   8.63552e-08     0.0893669     0.0825957        108050        103265        610178      0.163737
   0.00950951       1725.46       299.532       12484.1       69.5884          7.25             0       16.7191       0.48906             0        55.306     -0.460559             0       11.1002             0             0   4.29427e-08     0.0865688      0.111338        108043        103264        610923       0.15861
      0.01001       1684.65        299.67       12312.6       70.5651       7.23279             0       16.6694      0.514857             0        55.359     -0.673317             0       12.1759             0             0   3.94553e-10     0.0837737      0.140049        108035        103262        611668      0.153489
    0.0105105       1645.24       300.218       12792.6       70.8154       7.23308             0       16.5715       0.55351             0       55.4324     -0.537282             0       13.3389             0             0   1.95957e-10     0.0811237      0.167263        108026        103261        612384      0.148634
     0.011011       1606.09       300.757       13261.6        71.043       7.23003             0       16.4722      0.592307             0       55.4984     -0.393764             0       14.5023             0             0   1.71158e-12     0.0784942      0.194268        108016        103259        613108      0.143816
    0.0115115       1578.46       300.892       13235.9        70.263       7.07844             0       16.3063      0.637466             0       55.2418     0.0824463             0       15.6892             0             0   8.49486e-13     0.0767727      0.211943        108013        103258        614194      0.140662
     0.012012       1551.11       301.008       13185.5       69.4697       6.92283             0       16.1386      0.682578             0        54.981       0.55942             0       16.8758             0             0   7.98861e-15     0.0750709      0.229417        108010        103256        615281      0.137544
    0.0125125       1535.16       300.386         12124       68.1359       6.60354             0       15.8981      0.725734             0       54.5499        1.0674             0       18.0468             0             0   3.97852e-15     0.0741684      0.238679        108015        103254        616427       0.13589
     0.013013       1519.63       299.753       11055.1       66.8067       6.28383             0       15.6556      0.768723             0       54.1051       1.57282             0       19.2169             0             0   7.17437e-17     0.0732906      0.247687        108019        103253        617579      0.134282
    0.0135135       1519.95        298.71       9706.14       65.6491       5.94866             0       15.3346      0.805427             0       53.1512       1.98246             0       20.3536             0             0   3.55437e-17     0.0733366      0.247209        108025        103251        618927      0.134366
     0.014014       1521.11       297.675       8378.14       64.5141       5.61594             0       15.0124      0.841748             0       52.2118       2.39047             0       21.4891             0             0   3.52357e-19     0.0734246      0.246299        108030        103249        620286      0.134527
    0.0145145       1551.47        296.93       7776.96       64.1673       5.36852             0       14.6507      0.864811             0       51.7771       2.74222             0       22.5809             0             0   1.75273e-19     0.0749709      0.230411        108026        103247        622005      0.137361
     0.015015       1582.31       296.197       7189.32       63.8455       5.11935             0       14.2889      0.887234             0       51.3584       3.08866             0       23.6715             0             0   1.39325e-20     0.0765409      0.214281        108022        103245        623735      0.140237
    0.0155155       1628.51       295.813       7039.49       64.3337       4.81342             0       13.9209       0.88901             0       51.4557       3.26387             0       24.7234             0             0   3.61622e-19     0.0788755      0.190299        108009        103244        625820      0.144515
     0.016016       1674.29       295.433       6888.49       64.8311       4.50307             0       13.5531      0.890221             0       51.5475       3.43468             0       25.7752             0             0   1.47731e-17     0.0811982      0.166441        107996        103242        627902       0.14877
    0.0165165       1707.19       295.134       6702.29       65.6084       4.05896             0       13.1893       0.87432             0       51.4745       3.47264             0       26.8217             0             0   4.54616e-16     0.0831585      0.146314        107979        103240        629871      0.152362
     0.017017       1739.32       294.833       6510.21       66.3647        3.6095             0        12.826      0.858119             0       51.3768       3.50737             0       27.8678             0             0   1.88628e-14     0.0850996      0.126384        107962        103239        631840      0.155918
    0.0175175       1749.81       294.484       6151.08       66.5269       3.00794             0       12.4759      0.833375             0       50.5756       3.45014             0       28.9013             0             0   5.47785e-13     0.0864954      0.112064        107946        103237        633800      0.158476
     0.018018       1759.62       294.135       5788.93       66.6591        2.4093             0       12.1267      0.808646             0       49.7549       3.39269             0       29.9351             0             0   2.27556e-11     0.0878746     0.0979127        107931        103236        635756      0.161003
    0.0185185       1751.13       293.765       5345.87       65.9885       1.88894             0       11.8011      0.784314             0       48.4115       3.32961             0       30.9786             0             0   6.25477e-10     0.0888117     0.0883031        107920        103234        637611       0.16272
     0.019019       1742.04       293.394       4901.35       65.2983       1.36176             0       11.4764      0.760004             0       47.0583       3.26551             0       32.0241             0             0   1.78891e-08     0.0897327     0.0788591        107910        103233        639467      0.164407
    0.0195195       1717.81       293.008       4419.82       64.1119      0.661717             0       11.1744      0.736261             0       45.4589       3.17543             0       33.1216             0             0   4.56936e-07     0.0902444     0.0736102        107914        103231        641389      0.165345
      0.02002       1692.18       292.617       3932.15       62.9279    -0.0677294             0       10.8729      0.712451             0        43.843       3.08197             0       34.2221             0             0   7.06149e-06     0.0907211     0.0686942        107918        103230        643297      0.166218
    0.0205205          1633       292.121       3297.32       61.8016      -1.50296             0       10.5848      0.687022             0       41.8318       2.90748             0       35.3956             0             0   0.000161638     0.0903569      0.071768        107919        103228        644862      0.165551
     0.021021       1566.45       291.615       2654.76       60.5137      -2.89019             0       10.2966      0.661616             0       39.7882       2.73446             0       36.5691             0             0   0.000803484     0.0897211     0.0755104        107921        103227        646420      0.164386
    0.0215215       1331.51       290.883        1835.7       55.5436      -3.18254             0       10.0071      0.636734             0       37.0037        2.5951             0       37.7422             0             0     0.0125597     0.0828928     0.0945017        107941        103226        647802      0.151875
     0.022022       1094.67       290.159       1031.31       50.4291      -3.38406             0       9.71784      0.611797             0       34.2351       2.45585             0       38.9115             0             0     0.0252139     0.0756382      0.113963        107960        103225        649175      0.138583
    0.0225225       816.439       289.609       545.467       42.1791      -1.61231             0       9.43076      0.585647             0       31.8102       2.31901             0       39.9995             0             0      0.057379     0.0591232      0.143647        107975        103224        650379      0.108325
     0.023023       546.457       289.078       80.3315       34.0853       0.12507             0       9.14405      0.559146             0       29.4336       2.17606             0       41.0817             0             0     0.0893535     0.0427549      0.172652        107988        103222        651574     0.0783349
    0.0235235       447.623       288.933       44.6281       29.2326        1.1494             0       8.86528      0.525374             0        28.059       1.90629             0       42.0433             0             0      0.117378     0.0294299      0.187583        107968        103222        652619      0.053921
     0.024024       352.617       288.792       10.4566       24.5403       2.12128             0       8.58686      0.491171             0       26.7036       1.63486             0       42.9971             0             0      0.144709     0.0164977      0.201494        107949        103221        653641     0.0302269
    0.0245245       333.551       288.741       6.66717       23.0281       2.05279             0        8.3155      0.448404             0       25.7305       1.33056             0       43.7964             0             0      0.158302     0.0113564      0.195166        107930        103220        654239     0.0208071
     0.025025       315.017        288.69       3.02047       21.5659       1.98825             0       8.04499      0.405269             0       24.7699        1.0258             0       44.5872             0             0      0.171692    0.00634578      0.188379        107911        103220        654805     0.0116266
    0.0255255       306.572       288.659       2.08565       21.0531       1.99872             0       7.79044      0.355137             0       24.0487      0.712135             0        45.218             0             0      0.181226    0.00381805      0.172871        107905        103220        654747    0.00699538
     0.026026       298.401       288.629       1.18207       20.5607       2.00205             0       7.53727      0.304855             0       23.3492      0.398409             0       45.8409             0             0       0.19051     0.0013903      0.157426        107899        103219        654655    0.00254729
    0.0265265       295.225       288.608      0.848063       20.4394       1.87509             0       7.30913      0.251854             0       23.0465     0.0835772             0       46.3201             0             0      0.195229    0.00078514      0.143122        107907        103219        653921    0.00143852
     0.027027       292.165       288.588      0.527662       20.3338        1.7433             0       7.08258      0.198882             0        22.774     -0.232375             0        46.792             0             0      0.199762   0.000207754      0.129339        107914        103219        653153   0.000380644
    0.0275275       291.159       288.581      0.445596       20.5026       1.52701             0       6.88393      0.146432             0       23.0332      -0.56796             0       47.1358             0             0      0.201052   0.000116943      0.124663        107919        103219        651812   0.000214261
     0.028028       290.198       288.575      0.367092       20.6776       1.30389             0       6.68679     0.0940949             0       23.3173     -0.906267             0       47.4717             0             0      0.202221   3.05293e-05      0.120467        107924        103219        650439   5.59354e-05
    0.0285285       289.998       288.574      0.348639       20.9574      0.965522             0       6.51502     0.0436564             0       24.0224      -1.29045             0       47.6724             0             0      0.201357     1.825e-05      0.124349        107935        103220        648534   3.34374e-05
     0.029029       289.813       288.573      0.330976       21.2214      0.626747             0       6.34435   -0.00670626             0       24.7313      -1.67866             0       47.8619             0             0      0.200425   6.53926e-06      0.128522        107946        103220        646607   1.19811e-05
    0.0295295        289.86       288.572      0.326162       21.2273       0.28137             0        6.1914    -0.0558376             0       25.5012      -2.13227             0       47.8682             0             0       0.19838   4.06248e-06      0.137437        107970        103221        644328   7.44323e-06
      0.03003       289.911       288.571      0.321648        21.205    -0.0559545             0       6.03908     -0.104835             0       26.2622      -2.58928             0       47.8581             0             0      0.196304   1.69671e-06      0.146487        107994        103221        642040   3.10869e-06
    0.0305305       290.025       288.569      0.321813       20.7394      -0.26713             0       5.89648     -0.151725             0       26.8835      -3.09969             0       47.5891             0             0      0.193735   1.07009e-06      0.157662        108026        103222        639599    1.9606e-06
     0.031031       290.132       288.568      0.321541       20.2657     -0.469458             0       5.75429     -0.198172             0       27.5009      -3.60963             0       47.2998             0             0      0.191181   4.70922e-07      0.168772        108056        103223        637163   8.62816e-07
    0.0315315       290.124       288.564      0.314639       19.6697     -0.537924             0        5.6184       -0.2379             0         28.06      -4.11244             0       46.7007             0             0      0.188855   2.87206e-07      0.178888        108081        103224        634791   5.26215e-07
     0.032032       290.109       288.561      0.306962       19.0881     -0.598691             0       5.48363     -0.276883             0       28.6228      -4.61074             0       46.0805             0             0      0.186586   1.12668e-07      0.188757        108105        103226        632429   2.06429e-07
    0.0325325       290.001       288.554      0.287939       18.7182     -0.546845             0       5.36535     -0.304962             0         29.24      -5.04314             0       45.1495             0             0      0.185147    7.2352e-08      0.195012        108111        103227        630210   1.32562e-07
     0.033033       289.894       288.548      0.268792       18.3687     -0.490036             0       5.24949     -0.332216             0        29.868      -5.47162             0       44.2021             0             0      0.183761   3.40892e-08      0.201039        108115        103228        628002   6.24577e-08
    0.0335335         289.8       288.541      0.247902       18.3099     -0.362986             0       5.16786     -0.347787             0       30.6484      -5.84475             0       43.0202             0             0      0.183119   2.48815e-08      0.203831        108097        103230        625952   4.55876e-08
     0.034034       289.709       288.535      0.227551       18.2635     -0.238442             0       5.08941     -0.362767             0       31.4486      -6.21455             0       41.8276             0             0      0.182528   1.62062e-08      0.206401        108077        103232        623910   2.96927e-08
    0.0345345       289.667       288.531      0.214586       18.3862     -0.148247             0       5.05458     -0.369654             0       32.5192      -6.53857             0       40.4888             0             0      0.182635   1.48261e-08      0.205935        108044        103234        621992   2.71642e-08
     0.035035        289.63       288.527      0.202135       18.5122    -0.0647859             0       5.02308     -0.376336             0       33.6058      -6.85615             0        39.143             0             0      0.182798   1.37108e-08      0.205227        108012        103235        620081   2.51208e-08
    0.0355355       289.655       288.525      0.196501       18.6819      -0.07077             0       5.03582     -0.380298             0       34.9056      -7.08815             0       37.7033             0             0        0.1837   1.61127e-08      0.201304        107982        103237        618250   2.95214e-08
     0.036036       289.681       288.523      0.191011       18.8563    -0.0798951             0       5.05118     -0.383999             0       36.2174      -7.31628             0       36.2595             0             0      0.184624   1.87724e-08      0.197288        107953        103239        616426   3.43946e-08
    0.0365365       289.726       288.522      0.187386       19.0929     -0.129503             0       5.10022     -0.384328             0        37.684      -7.49455             0       34.7636             0             0      0.185821   2.47559e-08      0.192084        107937        103241        614691   4.53575e-08
     0.037037       289.769       288.522      0.183814       19.3365      -0.17856             0       5.15081      -0.38412             0       39.1668      -7.67624             0       33.2641             0             0      0.187023   3.11589e-08      0.186857        107922        103243        612967    5.7089e-08
    0.0375375       289.782       288.522      0.180901       19.6691     -0.220724             0       5.22088     -0.377199             0       40.8518      -7.90079             0       31.7179             0             0       0.18829   4.28106e-08      0.181346        107921        103245        611381   7.84369e-08
     0.038038       289.794       288.522       0.17815        20.008     -0.260594             0       5.29249     -0.369861             0       42.5351      -8.13181             0       30.1689             0             0      0.189562   5.49926e-08      0.175816        107920        103247        609809   1.00757e-07
    0.0385385       289.783        288.52       0.17736       20.4241     -0.272574             0       5.38291     -0.357453             0       44.1973      -8.44137             0       28.5863             0             0      0.190889   7.36225e-08      0.170048        107927        103249        608407    1.3489e-07
     0.039039       289.773       288.517      0.176789       20.8443     -0.280999             0       5.47522     -0.344886             0       45.8271      -8.75278             0       27.0046             0             0      0.192203   9.27015e-08      0.164336        107934        103251        607022   1.69846e-07
    0.0395395        289.76       288.511       0.17881       21.3133     -0.247415             0       5.58997     -0.330441             0        47.074      -9.08601             0       25.4329             0             0      0.193367   1.17088e-07      0.159272        107941        103253        605843   2.14527e-07
      0.04004       289.748       288.505      0.180995       21.7833     -0.211155             0        5.7055     -0.315987             0       48.2954      -9.41376             0       23.8641             0             0      0.194526   1.41702e-07      0.154233        107949        103255        604687   2.59624e-07
    0.0405405       289.736       288.496      0.185046       22.2643     -0.144127             0       5.82997     -0.301435             0       49.2245      -9.67862             0       22.3293             0             0      0.195617   1.68924e-07      0.149489        107952        103257        603796     3.095e-07
     0.041041       289.724       288.486      0.189187       22.7441    -0.0762359             0       5.95267     -0.286763             0       50.1688      -9.93644             0       20.7979             0             0      0.196719   1.95951e-07      0.144695        107956        103259        602921   3.59019e-07
    0.0415415       289.707       288.475       0.19434       23.2101    0.00131877             0       6.05564     -0.270747             0       51.2826      -10.1156             0       19.3045             0             0      0.197947   2.20792e-07      0.139356        107953        103261        602223   4.04532e-07
     0.042042       289.689       288.464      0.199468       23.6741     0.0777502             0       6.15576     -0.254593             0        52.419      -10.2824             0       17.8129             0             0      0.199188   2.45005e-07       0.13396        107950        103263        601530   4.48895e-07
    0.0425425       289.664       288.452      0.204329       24.1174      0.141934             0       6.22473     -0.236939             0       53.8021      -10.3156             0       16.3419             0             0      0.200571   2.62369e-07      0.127947        107940        103265        600899   4.80708e-07
     0.043043       289.637       288.442      0.209089       24.5519      0.203631             0       6.29177     -0.219584             0       55.1624      -10.3226             0       14.8703             0             0      0.201955   2.77383e-07       0.12193        107929        103267        600272   5.08218e-07
    0.0435435       289.599       288.434      0.212777       24.8933      0.238907             0       6.33814     -0.205394             0       56.2818       -10.053             0        13.393             0             0      0.203351   2.67429e-07       0.11586        107911        103269        599682   4.89979e-07
     0.044044        289.56       288.426      0.216429       25.2259      0.271326             0       6.38206     -0.191929             0        57.366       -9.7544             0       11.9186             0             0      0.204704    2.5539e-07       0.10998        107893        103270        599103   4.67923e-07
    0.0445445       289.508       288.421      0.219691       25.4669      0.274122             0       6.40057     -0.185978             0        58.086      -9.15508             0       10.4741             0             0      0.205601   2.21753e-07      0.106077        107870        103272        598647   4.06294e-07
     0.045045       289.458       288.416      0.222794       25.6991      0.277118             0       6.41424     -0.180095             0       58.8141      -8.53452             0       9.03841             0             0      0.206393   1.87733e-07      0.102638        107847        103274        598217   3.43961e-07
    0.0455455       289.417        288.41      0.224288       25.8437      0.282118             0       6.37885     -0.174899             0        59.625      -7.69905             0       7.69276             0             0      0.206106   1.49832e-07      0.103884        107822        103275        598059    2.7452e-07