#           y             T         TMean   TPrime2Mean           U_x           U_y           U_z       UMean_x       UMean_y       UMean_z UPrime2Mea... UPrime2Mea... UPrime2Mea... UPrime2Mea... UPrime2Mea... UPrime2Mea...            O2           H2O          C3H8             p         pMean   pPrime2Mean           CO2
  1.11022e-19       288.911       288.563     0.0894002       25.1105   7.63504e-17             0       12.5807   9.43465e-19             0       33.9806   1.95112e-18             0   7.37243e-18             0             0      0.221832   4.58693e-16      0.035512        105725        103174        355789   8.40412e-16
  0.000500501        288.91       288.572     0.0881577       25.1616      0.344196             0       12.5419    0.00425324             0       33.6191    0.00879587             0     0.0332357             0             0      0.221939   4.55896e-16     0.0350498        105726        103174        355787   8.35286e-16
     0.001001        288.91       288.581     0.0869234       25.2128      0.688361             0       12.5029    0.00850837             0       33.2562     0.0176557             0     0.0665697             0             0      0.222045   4.53088e-16     0.0345862        105726        103174        355784   8.30142e-16
    0.0015015       288.912       288.598     0.0897845       25.3405        1.0173             0       12.4166     0.0137052             0       32.2107     0.0584356             0      0.148969             0             0      0.222317   4.45163e-16     0.0334041        105727        103174        355767   8.15622e-16
     0.002002       288.913       288.615      0.092673       25.4684       1.34623             0       12.3303     0.0188986             0       31.1643     0.0992752             0       0.23159             0             0      0.222589    4.3725e-16      0.032223        105727        103173        355750   8.01124e-16
    0.0025025        288.92       288.627      0.102395       25.6577       1.67201             0       12.2513     0.0232626             0       29.9108      0.154971             0      0.369559             0             0      0.222801   4.32262e-16     0.0313014        105728        103173        355723   7.91985e-16
     0.003003       288.928       288.639      0.112114       25.8475       1.99784             0       12.1724     0.0276221             0       28.6592      0.210586             0      0.507832             0             0      0.223012     4.273e-16     0.0303825        105729        103173        355696   7.82893e-16
    0.0035035       288.935       288.645      0.121568       26.1295        2.3318             0       12.1177      0.031229             0       27.7365      0.252916             0      0.696711             0             0       0.22312   4.26635e-16     0.0299151        105730        103173        355693   7.81676e-16
     0.004004       288.941       288.651      0.130979       26.4121       2.66556             0       12.0631      0.034845             0       26.8168      0.295174             0      0.885943             0             0      0.223228   4.25911e-16     0.0294432        105731        103172        355690   7.80349e-16
    0.0045045       288.938       288.657      0.135126       26.7724       2.97363             0        12.013     0.0395873             0       26.2797      0.328641             0       1.11912             0             0      0.223462   4.17802e-16     0.0284263        105733        103172        355678   7.65492e-16
   0.00500501       288.935       288.662      0.139185       27.1325       3.28064             0       11.9628     0.0443544             0       25.7458      0.362087             0       1.35272             0             0      0.223696   4.09685e-16     0.0274108        105734        103172        355667   7.50619e-16
   0.00550551       288.926        288.67      0.134523       27.4783       3.48243             0       11.9034     0.0515741             0       25.5362      0.393402             0       1.62905             0             0      0.223898   4.00695e-16     0.0265325        105736        103171        355675   7.34148e-16
   0.00600601       288.918       288.679      0.129802       27.8232       3.68253             0        11.844     0.0588046             0         25.33      0.424595             0       1.90596             0             0      0.224095   3.91878e-16     0.0256732        105738        103171        355683   7.17994e-16
   0.00650651       288.914        288.69      0.120177       28.0852       3.74417             0       11.7812     0.0669221             0       25.4001      0.445802             0       2.23156             0             0      0.223931   3.97335e-16     0.0263889        105740        103171        355731   7.27992e-16
   0.00700701        288.91         288.7      0.110598       28.3463       3.80459             0       11.7185     0.0750304             0       25.4732      0.466722             0       2.55798             0             0      0.223758   4.03043e-16     0.0271391        105742        103170        355780    7.3845e-16
   0.00750751       288.914       288.707      0.104229       28.5358       3.77912             0       11.6632      0.082485             0       25.7537      0.467391             0       2.94171             0             0      0.223025   4.26454e-16     0.0303254        105744        103170        355882   7.81343e-16
   0.00800801       288.918       288.714     0.0979167       28.7245       3.75314             0        11.608     0.0899234             0       26.0352      0.467869             0        3.3265             0             0      0.222273   4.50393e-16     0.0335945        105746        103169        355985   8.25203e-16
   0.00850851       288.936       288.716      0.095091       28.8558       3.69549             0       11.5629      0.096367             0       26.3733      0.456585             0       3.77617             0             0      0.220351   5.06807e-16     0.0419515        105748        103169        356150   9.28565e-16
   0.00900901       288.956       288.718     0.0922823       28.9859        3.6373             0        11.518      0.102783             0        26.708      0.445465             0       4.22703             0             0      0.218393   5.64428e-16     0.0504654        105749        103168        356315   1.03414e-15
   0.00950951        289.01       288.718     0.0903989       29.0472       3.54973             0       11.4829      0.107716             0       26.8617       0.44323             0         4.742             0             0      0.214467   6.87886e-16     0.0675315        105751        103168        356538   1.26033e-15
      0.01001       289.065       288.718     0.0885274       29.1074       3.46185             0        11.448       0.11261             0       27.0086      0.441272             0       5.25814             0             0      0.210525   8.12121e-16     0.0846713        105752        103167        356762   1.48796e-15
    0.0105105       289.129       288.718     0.0872398       29.1191       3.35857             0       11.4218       0.11557             0       26.8283      0.452914             0       5.83107             0             0      0.205753    9.7447e-16      0.105418        105753        103167        357023   1.78541e-15
     0.011011       289.191       288.717     0.0859581       29.1307       3.25601             0       11.3958      0.118484             0       26.6406      0.464608             0       6.40508             0             0      0.201017   1.13576e-15      0.126008        105754        103166        357285   2.08092e-15
    0.0115115       289.205       288.716     0.0849339       29.1373       3.18509             0       11.3759       0.11939             0       26.1302      0.478611             0       7.02666             0             0      0.197893   1.24996e-15      0.139595        105755        103165        357539   2.29017e-15
     0.012012       289.218       288.714      0.083913       29.1447       3.11525             0       11.3561      0.120256             0        25.613      0.492612             0       7.64904             0             0       0.19481    1.3627e-15      0.152997        105756        103164        357793   2.49672e-15
    0.0125125       289.199       288.712     0.0830283       29.1875       3.08965             0        11.338      0.119512             0       24.8223      0.506535             0       8.30393             0             0      0.193459   1.41571e-15      0.158874        105756        103164        358058   2.59385e-15
     0.013013       289.181        288.71     0.0821429       29.2301       3.06516             0       11.3198      0.118774             0       24.0245      0.521292             0       8.95869             0             0      0.192124   1.46804e-15      0.164679        105756        103163        358321   2.68973e-15
    0.0135135       289.176       288.709     0.0812287       29.2668       3.08266             0       11.2947      0.118246             0       22.9582      0.567294             0       9.60824             0             0      0.191413   1.49495e-15      0.167769        105756        103162        358543   2.73903e-15
     0.014014       289.171       288.708     0.0803149       29.3005       3.10103             0       11.2691      0.117806             0       21.8848       0.61514             0        10.256             0             0      0.190712   1.52148e-15      0.170819        105756        103162        358764   2.78763e-15
    0.0145145       289.181       288.707     0.0794134       29.2322       3.14965             0       11.2255      0.120425             0       20.5676      0.726983             0       10.8432             0             0       0.19033   1.53461e-15      0.172477        105755        103161        358926   2.81169e-15
     0.015015       289.191       288.707     0.0785172       29.1602       3.19757             0       11.1813      0.123147             0       19.2462      0.840033             0       11.4278             0             0      0.189953    1.5476e-15      0.174117        105755        103160        359088   2.83548e-15
    0.0155155       289.209       288.707     0.0777878       28.9725       3.22314             0       11.1147      0.129194             0       17.7927      0.992102             0       11.9295             0             0      0.189712   1.55595e-15      0.175167        105755        103159        359236   2.85079e-15
     0.016016       289.228       288.706     0.0770581       28.7799       3.24751             0       11.0477      0.135224             0       16.3396       1.14316             0       12.4292             0             0      0.189476   1.56416e-15      0.176193        105754        103159        359381   2.86584e-15
    0.0165165       289.246       288.706     0.0763201        28.437       3.23577             0       10.9659      0.140724             0       14.8953       1.26363             0       12.8697             0             0        0.1894   1.56811e-15      0.176519        105754        103158        359469   2.87307e-15
     0.017017       289.264       288.705     0.0755829       28.0869       3.22391             0       10.8839       0.14609             0       13.4561       1.38158             0       13.3082             0             0      0.189335   1.57176e-15      0.176806        105753        103158        359554   2.87976e-15
    0.0175175       289.263       288.705     0.0748697       27.5321       3.20852             0       10.7965      0.147665             0       12.1633        1.4283             0       13.6905             0             0      0.189534   1.56713e-15       0.17594        105752        103157        359566   2.87128e-15
     0.018018        289.26       288.704     0.0741582       26.9754       3.19221             0        10.709       0.14912             0       10.8816       1.47277             0       14.0691             0             0       0.18975   1.56191e-15      0.174999        105752        103157        359574    2.8617e-15
    0.0185185       289.226       288.703     0.0734952       26.3688       3.15107             0       10.6192      0.147362             0       9.89604       1.45739             0        14.348             0             0      0.190439   1.54064e-15      0.172006        105751        103157        359483   2.82274e-15
     0.019019        289.19       288.702     0.0728297       25.7681       3.10762             0       10.5293       0.14552             0       8.92647        1.4405             0       14.6216             0             0      0.191148   1.51858e-15      0.168919        105751        103156        359388   2.78233e-15
    0.0195195       289.121       288.702     0.0721045       25.3176       3.00536             0       10.4387      0.141561             0       8.36125       1.38542             0       14.7614             0             0      0.192399   1.47634e-15      0.163484        105750        103156        359184   2.70493e-15
      0.02002       289.052       288.702     0.0713593       24.8725       2.90195             0       10.3482      0.137496             0       7.81355       1.32915             0       14.8955             0             0      0.193648   1.43403e-15      0.158054        105750        103156        358977    2.6274e-15
    0.0205205        288.99       288.704     0.0701337       24.5588       2.77078             0       10.2601      0.130888             0       7.68641       1.24437             0        14.893             0             0      0.194864   1.39012e-15      0.152767        105750        103156        358707   2.54695e-15
     0.021021        288.93       288.705     0.0688817       24.2472       2.64011             0       10.1722      0.124183             0       7.57548       1.15882             0       14.8846             0             0      0.196061   1.34687e-15      0.147561        105750        103156        358435   2.46771e-15
    0.0215215       288.892       288.708     0.0670275       23.9844       2.52059             0       10.0862      0.115264             0       7.83449       1.05569             0       14.7399             0             0      0.196839    1.3187e-15       0.14418        105749        103156        358123    2.4161e-15
     0.022022       288.854        288.71     0.0651605       23.7256       2.40204             0       10.0001      0.106323             0        8.1068      0.952609             0       14.5888             0             0      0.197604    1.2911e-15      0.140851        105749        103156        357808   2.36553e-15
    0.0225225       288.824       288.714     0.0630163        23.552       2.30446             0       9.91204     0.0968903             0       8.66813      0.850705             0       14.2998             0             0      0.198114   1.27581e-15      0.138635        105749        103157        357435   2.33753e-15
     0.023023       288.795       288.717     0.0608806       23.3845       2.20787             0       9.82388     0.0874993             0       9.23925      0.749667             0       14.0047             0             0      0.198624   1.26069e-15      0.136419        105748        103157        357060   2.30981e-15
    0.0235235       288.775        288.72     0.0589209       23.3457        2.1319             0       9.73231     0.0789703             0       10.0131      0.666619             0       13.5849             0             0      0.199128   1.24875e-15      0.134228        105748        103158        356636   2.28795e-15
     0.024024       288.755       288.723     0.0569852       23.3105       2.05614             0       9.64069     0.0705108             0        10.793      0.585068             0         13.16             0             0      0.199639   1.23677e-15      0.132006        105747        103158        356211     2.266e-15
    0.0245245       288.738       288.726      0.055525       23.3457       1.98482             0        9.5481      0.063429             0       11.6928      0.533211             0       12.6359             0             0      0.200286   1.22379e-15       0.12919        105747        103159        355780   2.24221e-15
     0.025025        288.72       288.728     0.0540734       23.3861       1.91461             0       9.45575     0.0564375             0       12.5948      0.483437             0       12.1083             0             0      0.200922   1.21124e-15      0.126429        105746        103160        355346   2.21922e-15
    0.0255255       288.708       288.732     0.0527873       23.5238       1.86579             0       9.36784     0.0511593             0       13.5367      0.473233             0       11.5127             0             0      0.201321   1.20687e-15      0.124694        105746        103160        354879   2.21121e-15
     0.026026       288.698       288.735     0.0514868        23.666       1.81972             0       9.28045     0.0460009             0       14.4759       0.46548             0       10.9154             0             0      0.201675   1.20395e-15      0.123154        105746        103161        354410   2.20585e-15
    0.0265265       288.716        288.74     0.0499252       23.8879       1.82371             0       9.20273     0.0430253             0       15.3657      0.502395             0       10.2874             0             0      0.201209   1.22736e-15      0.125177        105746        103162        353923   2.24875e-15
     0.027027       288.737       288.744     0.0483397       24.0997       1.82558             0       9.12559     0.0401581             0       16.2464      0.541238             0       9.65966             0             0      0.200655   1.25497e-15      0.127585        105745        103163        353436   2.29934e-15
    0.0275275       288.813       288.751     0.0463347       24.1345       1.79019             0       9.05882     0.0391907             0       16.9681      0.613852             0       9.03651             0             0       0.19855   1.35619e-15      0.136739        105745        103163        352933   2.48479e-15
     0.028028        288.89       288.757     0.0443644       24.1548       1.74658             0       8.99258     0.0382918             0       17.6739      0.686866             0       8.41522             0             0      0.196457   1.45789e-15      0.145841        105745        103164        352432   2.67113e-15
    0.0285285       288.965       288.764     0.0429776       23.9307       1.56437             0       8.93526     0.0385463             0       18.1127      0.766618             0       7.82531             0             0      0.194564   1.56787e-15       0.15407        105746        103165        351943   2.87262e-15
     0.029029       289.037       288.771     0.0416799       23.7077       1.37747             0       8.87853     0.0388842             0       18.5321       0.84518             0       7.23869             0             0      0.192788    1.6729e-15       0.16179        105746        103165        351459   3.06507e-15
    0.0295295        289.05       288.777     0.0418298       23.5017       1.11424             0       8.83136     0.0405775             0        18.638      0.904423             0       6.70549             0             0      0.192914   1.69778e-15      0.161243        105747        103166        351055   3.11065e-15
      0.03003       289.061       288.781     0.0420193       23.3084      0.855726             0       8.78496     0.0423987             0        18.728      0.962221             0       6.17679             0             0      0.193073   1.72081e-15      0.160553        105748        103166        350659   3.15285e-15
    0.0305305       289.057       288.783     0.0428279       23.3152      0.671128             0       8.75054     0.0462239             0       18.5677      0.997393             0       5.71849             0             0      0.193746   1.71497e-15      0.157628        105749        103167        350367   3.14215e-15
     0.031031       289.055       288.784     0.0436175       23.3303      0.494016             0       8.71692     0.0501679             0       18.3992       1.03196             0       5.26513             0             0      0.194386   1.71002e-15      0.154843        105750        103168        350079   3.13307e-15
    0.0315315       289.069       288.783     0.0441201       23.4714      0.430159             0       8.69532     0.0559079             0       18.1085       1.05739             0       4.88668             0             0      0.194536   1.71854e-15      0.154192        105751        103168        349852   3.14868e-15
     0.032032       289.084       288.781     0.0445884       23.6124      0.369156             0       8.67417     0.0616914             0       17.8169       1.08264             0       4.51267             0             0       0.19464    1.7284e-15       0.15374        105751        103169        349632   3.16675e-15
    0.0325325       289.117       288.779     0.0445559       23.7528      0.349887             0       8.65977     0.0681096             0       17.5115       1.10518             0       4.20378             0             0      0.194069   1.75784e-15      0.156224        105752        103169        349497   3.22069e-15
     0.033033        289.15       288.776     0.0444956       23.8896      0.330019             0       8.64534      0.074494             0       17.2086       1.12722             0       3.89841             0             0      0.193476   1.78808e-15      0.158802        105752        103169        349366    3.2761e-15
    0.0335335       289.194       288.773     0.0440424       23.9765      0.301668             0       8.63045     0.0804018             0       16.9401       1.14242             0       3.64307             0             0      0.192572   1.82961e-15      0.162733        105752        103170        349307   3.35219e-15
     0.034034       289.238       288.769     0.0435577       24.0579      0.271269             0       8.61525     0.0862439             0       16.6733       1.15673             0       3.39039             0             0      0.191677    1.8705e-15      0.166624        105751        103170        349251   3.42711e-15
    0.0345345       289.271       288.765     0.0426433       24.0639      0.212812             0       8.59593     0.0911877             0       16.4301       1.15892             0        3.1744             0             0      0.190908   1.90271e-15      0.169966        105751        103170        349235   3.48611e-15
     0.035035       289.302        288.76     0.0417113       24.0619      0.153041             0       8.57635     0.0960537             0       16.1862       1.16006             0       2.96038             0             0      0.190159   1.93348e-15      0.173224        105749        103171        349223    3.5425e-15
    0.0355355       289.317       288.754     0.0405448       23.9545      0.075816             0       8.55344     0.0998859             0       15.9312       1.14734             0       2.77269             0             0      0.189665   1.94528e-15      0.175368        105748        103171        349278   3.56411e-15
     0.036036       289.331       288.747     0.0394015        23.835   4.08055e-05             0       8.53045      0.103635             0       15.6737       1.13356             0       2.58642             0             0      0.189184   1.95625e-15      0.177459        105746        103171        349336   3.58421e-15
    0.0365365       289.342        288.74     0.0385576       23.5602    -0.0570432             0       8.50642      0.106312             0       15.3832       1.10613             0       2.41832             0             0      0.188861   1.95664e-15      0.178866        105743        103171        349431   3.58493e-15
     0.037037       289.353       288.733     0.0377706       23.2694     -0.110098             0       8.48241        0.1089             0       15.0904        1.0778             0        2.2512             0             0      0.188528   1.95713e-15      0.180313        105741        103172        349530   3.58583e-15
    0.0375375       289.363       288.727     0.0376963       22.7773     -0.112737             0       8.45873      0.110372             0       14.7679        1.0383             0       2.09616             0             0      0.188077   1.95888e-15      0.182273        105737        103172        349677   3.58903e-15
     0.038038       289.374       288.721     0.0376704       22.2699     -0.110573             0       8.43508      0.111744             0       14.4443      0.998322             0       1.94186             0             0      0.187615   1.96095e-15      0.184279        105734        103172        349830   3.59283e-15
    0.0385385       289.388       288.717     0.0382326       21.5761    -0.0500055             0       8.41196      0.111911             0        14.108      0.952553             0       1.79638             0             0      0.187024   1.96691e-15      0.186849        105730        103172        350055   3.60374e-15
     0.039039       289.402       288.713     0.0388124       20.8742     0.0141729             0       8.38886      0.111978             0        13.772       0.90686             0       1.65157             0             0      0.186445   1.97277e-15      0.189366        105727        103172        350285   3.61449e-15
    0.0395395       289.416        288.71     0.0395986       20.0771      0.121038             0        8.3659      0.110868             0       13.4396       0.86208             0       1.51463             0             0      0.186012   1.97759e-15      0.191247        105724        103172        350584   3.62331e-15
      0.04004        289.43       288.707     0.0403909       19.2824      0.228882             0       8.34296      0.109652             0        13.109      0.817621             0       1.37846             0             0      0.185601   1.98209e-15      0.193036        105720        103172        350889   3.63155e-15
    0.0405405        289.44       288.706      0.041252       18.5153      0.347984             0       8.32021      0.107219             0       12.7978      0.776852             0       1.25119             0             0      0.185431   1.98295e-15      0.193775        105717        103172        351262   3.63313e-15
     0.041041        289.45       288.704     0.0421178       17.7587      0.464974             0       8.29755      0.104668             0         12.49      0.736117             0       1.12489             0             0      0.185277   1.98343e-15      0.194445        105714        103173        351637   3.63401e-15
    0.0415415       289.458       288.703     0.0430342       17.1209       0.55832             0       8.27595      0.100798             0       12.2201      0.695769             0       1.00937             0             0      0.185302   1.97969e-15      0.194335        105711        103173        352039   3.62716e-15
     0.042042       289.465       288.702     0.0439585       16.4963      0.647164             0       8.25448       0.09681             0       11.9545      0.655066             0      0.894909             0             0      0.185344   1.97536e-15      0.194154        105708        103173        352439   3.61924e-15
    0.0425425       289.474       288.702     0.0449669       16.0162      0.686911             0       8.23436     0.0915335             0        11.735      0.610487             0      0.792106             0             0      0.185568   1.96465e-15      0.193184        105705        103173        352826   3.59961e-15
     0.043043       289.483       288.701     0.0460093       15.5452      0.720694             0       8.21416     0.0861463             0        11.518      0.565307             0      0.690343             0             0      0.185806   1.95366e-15      0.192149        105702        103173        353213   3.57947e-15
    0.0435435       289.504       288.702      0.047413        15.172      0.691088             0       8.19307     0.0795827             0       11.3259      0.513741             0       0.59962             0             0      0.186203   1.93968e-15      0.190423        105698        103173        353599   3.55386e-15
     0.044044       289.526       288.702     0.0488514       14.8017      0.655776             0       8.17134     0.0729049             0       11.1328      0.461753             0      0.509849             0             0      0.186603   1.92617e-15      0.188684        105695        103173        353981    3.5291e-15
    0.0445445       289.562       288.703     0.0506507       14.4609      0.561313             0       8.14288     0.0650427             0       10.9303      0.405383             0      0.429947             0             0      0.187035   1.91743e-15      0.186806        105691        103174        354333    3.5131e-15
     0.045045       289.599       288.704     0.0524401       14.1229      0.464979             0       8.11257      0.057117             0       10.7218      0.349593             0      0.351109             0             0      0.187467    1.9096e-15      0.184932        105688        103174        354680   3.49875e-15
    0.0455455       289.645       288.705     0.0541306       13.8146      0.349733             0        8.0634     0.0485479             0       10.4535      0.299668             0      0.283028             0             0      0.187889    1.9109e-15      0.183095        105685        103174        354973   3.50112e-15