# vtk DataFile Version 2.0
sampleSurface
ASCII
DATASET POLYDATA
POINTS 16001 float
0 0 0.0005 0 0.001 0.0005 0.001 0 0.0005 -0.001 0
0.0005 0.001 0.001 0.0005 -0.001 0.001 0.0005 0.002 0 0.0005
0 0.002 0.0005 -0.002 0 0.0005 0.002 0.001 0.0005 0.001
0.002 0.0005 -0.002 0.001 0.0005 -0.001 0.002 0.0005 0.002 0.002
0.0005 -0.002 0.002 0.0005 0.003 0 0.0005 0 0.003 0.0005
-0.003 0 0.0005 0.003 0.001 0.0005 0.001 0.003 0.0005 -0.003
0.001 0.0005 -0.001 0.003 0.0005 0.003 0.002 0.0005 0.002 0.003
0.0005 -0.003 0.002 0.0005 -0.002 0.003 0.0005 0.004 0 0.0005
0 0.004 0.0005 -0.004 0 0.0005 0.004 0.001 0.0005 0.001
0.004 0.0005 -0.004 0.001 0.0005 -0.001 0.004 0.0005 0.003 0.003
0.0005 -0.003 0.003 0.0005 0.004 0.002 0.0005 0.002 0.004 0.0005
-0.004 0.002 0.0005 -0.002 0.004 0.0005 0.004 0.003 0.0005 0.003
0.004 0.0005 -0.004 0.003 0.0005 -0.003 0.004 0.0005 0.005 0
0.0005 0 0.005 0.0005 -0.005 0 0.0005 0.005 0.001 0.0005
0.001 0.005 0.0005 -0.005 0.001 0.0005 -0.001 0.005 0.0005 0.005
0.002 0.0005 0.002 0.005 0.0005 -0.005 0.002 0.0005 -0.002 0.005
0.0005 0.004 0.004 0.0005 -0.004 0.004 0.0005 0.005 0.003 0.0005
0.003 0.005 0.0005 -0.005 0.003 0.0005 -0.003 0.005 0.0005 0.006
0 0.0005 0 0.006 0.0005 -0.006 0 0.0005 0.006 0.001
0.0005 0.001 0.006 0.0005 -0.006 0.001 0.0005 -0.001 0.006 0.0005
0.006 0.002 0.0005 0.002 0.006 0.0005 -0.006 0.002 0.0005 -0.002
0.006 0.0005 0.005 0.004 0.0005 0.004 0.005 0.0005 -0.005 0.004
0.0005 -0.004 0.005 0.0005 0.006 0.003 0.0005 0.003 0.006 0.0005
-0.006 0.003 0.0005 -0.003 0.006 0.0005 0.007 0 0.0005 0
0.007 0.0005 -0.007 0 0.0005 0.007 0.001 0.0005 0.005 0.005
0.0005 0.001 0.007 0.0005 -0.007 0.001 0.0005 -0.005 0.005 0.0005
-0.001 0.007 0.0005 0.006 0.004 0.0005 0.004 0.006 0.0005 -0.006
0.004 0.0005 -0.004 0.006 0.0005 0.007 0.002 0.0005 0.002 0.007
0.0005 -0.007 0.002 0.0005 -0.002 0.007 0.0005 0.007 0.003 0.0005
0.003 0.007 0.0005 -0.007 0.003 0.0005 -0.003 0.007 0.0005 0.006
0.005 0.0005 0.005 0.006 0.0005 -0.006 0.005 0.0005 -0.005 0.006
0.0005 0.008 0 0.0005 0 0.008 0.0005 -0.008 0 0.0005
0.008 0.001 0.0005 0.001 0.008 0.0005 -0.008 0.001 0.0005 -0.001
0.008 0.0005 0.007 0.004 0.0005 0.004 0.007 0.0005 -0.007 0.004
0.0005 -0.004 0.007 0.0005 0.008 0.002 0.0005 0.002 0.008 0.0005
-0.008 0.002 0.0005 -0.002 0.008 0.0005 0.006 0.006 0.0005 -0.006
0.006 0.0005 0.008 0.003 0.0005 0.003 0.008 0.0005 -0.008 0.003
0.0005 -0.003 0.008 0.0005 0.007 0.005 0.0005 0.005 0.007 0.0005
-0.007 0.005 0.0005 -0.005 0.007 0.0005 0.008 0.004 0.0005 0.004
0.008 0.0005 -0.008 0.004 0.0005 -0.004 0.008 0.0005 0.009 0
0.0005 0 0.009 0.0005 -0.009 0 0.0005 0.009 0.001 0.0005
0.001 0.009 0.0005 -0.009 0.001 0.0005 -0.001 0.009 0.0005 0.009
0.002 0.0005 0.002 0.009 0.0005 -0.009 0.002 0.0005 -0.002 0.009
0.0005 0.007 0.006 0.0005 0.006 0.007 0.0005 -0.007 0.006 0.0005
-0.006 0.007 0.0005 0.008 0.005 0.0005 0.005 0.008 0.0005 -0.008
0.005 0.0005 -0.005 0.008 0.0005 0.009 0.003 0.0005 0.003 0.009
0.0005 -0.009 0.003 0.0005 -0.003 0.009 0.0005 0.009 0.004 0.0005
0.004 0.009 0.0005 -0.009 0.004 0.0005 -0.004 0.009 0.0005 0.007
0.007 0.0005 -0.007 0.007 0.0005 0.008 0.006 0.0005 0.006 0.008
0.0005 -0.008 0.006 0.0005 -0.006 0.008 0.0005 0.01 0 0.0005
0 0.01 0.0005 -0.01 0 0.0005 0.01 0.001 0.0005 0.001
0.01 0.0005 -0.01 0.001 0.0005 -0.001 0.01 0.0005 0.01 0.002
0.0005 0.002 0.01 0.0005 -0.01 0.002 0.0005 -0.002 0.01 0.0005
0.009 0.005 0.0005 0.005 0.009 0.0005 -0.009 0.005 0.0005 -0.005
0.009 0.0005 0.01 0.003 0.0005 0.003 0.01 0.0005 -0.01 0.003
0.0005 -0.003 0.01 0.0005 0.008 0.007 0.0005 0.007 0.008 0.0005
-0.008 0.007 0.0005 -0.007 0.008 0.0005 0.01 0.004 0.0005 0.004
0.01 0.0005 -0.01 0.004 0.0005 -0.004 0.01 0.0005 0.009 0.006
0.0005 0.006 0.009 0.0005 -0.009 0.006 0.0005 -0.006 0.009 0.0005
0.011 0 0.0005 0 0.011 0.0005 -0.011 0 0.0005 0.011
0.001 0.0005 0.001 0.011 0.0005 -0.011 0.001 0.0005 -0.001 0.011
0.0005 0.011 0.002 0.0005 0.002 0.011 0.0005 -0.011 0.002 0.0005
-0.002 0.011 0.0005 0.01 0.005 0.0005 0.005 0.01 0.0005 -0.01
0.005 0.0005 -0.005 0.01 0.0005 0.008 0.008 0.0005 -0.008 0.008
0.0005 0.011 0.003 0.0005 0.009 0.007 0.0005 0.007 0.009 0.0005
0.003 0.011 0.0005 -0.011 0.003 0.0005 -0.009 0.007 0.0005 -0.007
0.009 0.0005 -0.003 0.011 0.0005 0.01 0.006 0.0005 0.006 0.01
0.0005 -0.01 0.006 0.0005 -0.006 0.01 0.0005 0.011 0.004 0.0005
0.004 0.011 0.0005 -0.011 0.004 0.0005 -0.004 0.011 0.0005 0.012
0 0.0005 0 0.012 0.0005 -0.012 0 0.0005 0.012 0.001
0.0005 0.009 0.008 0.0005 0.008 0.009 0.0005 0.001 0.012 0.0005
-0.012 0.001 0.0005 -0.009 0.008 0.0005 -0.008 0.009 0.0005 -0.001
0.012 0.0005 0.011 0.005 0.0005 0.005 0.011 0.0005 -0.011 0.005
0.0005 -0.005 0.011 0.0005 0.012 0.002 0.0005 0.002 0.012 0.0005
-0.012 0.002 0.0005 -0.002 0.012 0.0005 0.01 0.007 0.0005 0.007
0.01 0.0005 -0.01 0.007 0.0005 -0.007 0.01 0.0005 0.012 0.003
0.0005 0.003 0.012 0.0005 -0.012 0.003 0.0005 -0.003 0.012 0.0005
0.011 0.006 0.0005 0.006 0.011 0.0005 -0.011 0.006 0.0005 -0.006
0.011 0.0005 0.012 0.004 0.0005 0.004 0.012 0.0005 -0.012 0.004
0.0005 -0.004 0.012 0.0005 0.009 0.009 0.0005 -0.009 0.009 0.0005
0.01 0.008 0.0005 0.008 0.01 0.0005 -0.01 0.008 0.0005 -0.008
0.01 0.0005 0.013 0 0.0005 0 0.013 0.0005 -0.013 0
0.0005 0.012 0.005 0.0005 0.005 0.012 0.0005 -0.012 0.005 0.0005
-0.005 0.012 0.0005 0.013 0.001 0.0005 0.011 0.007 0.0005 0.007
0.011 0.0005 0.001 0.013 0.0005 -0.013 0.001 0.0005 -0.011 0.007
0.0005 -0.007 0.011 0.0005 -0.001 0.013 0.0005 0.013 0.002 0.0005
0.002 0.013 0.0005 -0.013 0.002 0.0005 -0.002 0.013 0.0005 0.013
0.003 0.0005 0.003 0.013 0.0005 -0.013 0.003 0.0005 -0.003 0.013
0.0005 0.012 0.006 0.0005 0.006 0.012 0.0005 -0.012 0.006 0.0005
-0.006 0.012 0.0005 0.01 0.009 0.0005 0.009 0.01 0.0005 -0.01
0.009 0.0005 -0.009 0.01 0.0005 0.013 0.004 0.0005 0.011 0.008
0.0005 0.008 0.011 0.0005 0.004 0.013 0.0005 -0.013 0.004 0.0005
-0.011 0.008 0.0005 -0.008 0.011 0.0005 -0.004 0.013 0.0005 0.012
0.007 0.0005 0.007 0.012 0.0005 -0.012 0.007 0.0005 -0.007 0.012
0.0005 0.013 0.005 0.0005 0.005 0.013 0.0005 -0.013 0.005 0.0005
-0.005 0.013 0.0005 0.014 0 0.0005 0 0.014 0.0005 -0.014
0 0.0005 0.014 0.001 0.0005 0.001 0.014 0.0005 -0.014 0.001
0.0005 -0.001 0.014 0.0005 0.014 0.002 0.0005 0.01 0.01 0.0005
0.002 0.014 0.0005 -0.014 0.002 0.0005 -0.01 0.01 0.0005 -0.002
0.014 0.0005 0.011 0.009 0.0005 0.009 0.011 0.0005 -0.011 0.009
0.0005 -0.009 0.011 0.0005 0.013 0.006 0.0005 0.006 0.013 0.0005
-0.013 0.006 0.0005 -0.006 0.013 0.0005 0.014 0.003 0.0005 0.003
0.014 0.0005 -0.014 0.003 0.0005 -0.003 0.014 0.0005 0.012 0.008
0.0005 0.008 0.012 0.0005 -0.012 0.008 0.0005 -0.008 0.012 0.0005
0.014 0.004 0.0005 0.004 0.014 0.0005 -0.014 0.004 0.0005 -0.004
0.014 0.0005 0.013 0.007 0.0005 0.007 0.013 0.0005 -0.013 0.007
0.0005 -0.007 0.013 0.0005 0.011 0.01 0.0005 0.01 0.011 0.0005
-0.011 0.01 0.0005 -0.01 0.011 0.0005 0.014 0.005 0.0005 0.005
0.014 0.0005 -0.014 0.005 0.0005 -0.005 0.014 0.0005 0.015 0
0.0005 0.012 0.009 0.0005 0.009 0.012 0.0005 0 0.015 0.0005
-0.015 0 0.0005 -0.012 0.009 0.0005 -0.009 0.012 0.0005 0.015
0.001 0.0005 0.001 0.015 0.0005 -0.015 0.001 0.0005 -0.001 0.015
0.0005 0.015 0.002 0.0005 0.002 0.015 0.0005 -0.015 0.002 0.0005
-0.002 0.015 0.0005 0.014 0.006 0.0005 0.006 0.014 0.0005 -0.014
0.006 0.0005 -0.006 0.014 0.0005 0.013 0.008 0.0005 0.008 0.013
0.0005 -0.013 0.008 0.0005 -0.008 0.013 0.0005 0.015 0.003 0.0005
0.003 0.015 0.0005 -0.015 0.003 0.0005 -0.003 0.015 0.0005 0.015
0.004 0.0005 0.004 0.015 0.0005 -0.015 0.004 0.0005 -0.004 0.015
0.0005 0.011 0.011 0.0005 -0.011 0.011 0.0005 0.012 0.01 0.0005
0.01 0.012 0.0005 -0.012 0.01 0.0005 -0.01 0.012 0.0005 0.014
0.007 0.0005 0.007 0.014 0.0005 -0.014 0.007 0.0005 -0.007 0.014
0.0005 0.015 0.005 0.0005 0.013 0.009 0.0005 0.009 0.013 0.0005
0.005 0.015 0.0005 -0.015 0.005 0.0005 -0.013 0.009 0.0005 -0.009
0.013 0.0005 -0.005 0.015 0.0005 0.016 0 0.0005 0 0.016
0.0005 -0.016 0 0.0005 0.016 0.001 0.0005 0.001 0.016 0.0005
-0.016 0.001 0.0005 -0.001 0.016 0.0005 0.016 0.002 0.0005 0.002
0.016 0.0005 -0.016 0.002 0.0005 -0.002 0.016 0.0005 0.014 0.008
0.0005 0.008 0.014 0.0005 -0.014 0.008 0.0005 -0.008 0.014 0.0005
0.015 0.006 0.0005 0.006 0.015 0.0005 -0.015 0.006 0.0005 -0.006
0.015 0.0005 0.016 0.003 0.0005 0.012 0.011 0.0005 0.011 0.012
0.0005 0.003 0.016 0.0005 -0.016 0.003 0.0005 -0.012 0.011 0.0005
-0.011 0.012 0.0005 -0.003 0.016 0.0005 0.013 0.01 0.0005 0.01
0.013 0.0005 -0.013 0.01 0.0005 -0.01 0.013 0.0005 0.016 0.004
0.0005 0.004 0.016 0.0005 -0.016 0.004 0.0005 -0.004 0.016 0.0005
0.015 0.007 0.0005 0.007 0.015 0.0005 -0.015 0.007 0.0005 -0.007
0.015 0.0005 0.014 0.009 0.0005 0.009 0.014 0.0005 -0.014 0.009
0.0005 -0.009 0.014 0.0005 0.016 0.005 0.0005 0.005 0.016 0.0005
-0.016 0.005 0.0005 -0.005 0.016 0.0005 0.012 0.012 0.0005 -0.012
0.012 0.0005 0.015 0.008 0.0005 0.008 0.015 0.0005 -0.015 0.008
0.0005 -0.008 0.015 0.0005 0.017 0 0.0005 0 0.017 0.0005
-0.017 0 0.0005 0.013 0.011 0.0005 0.011 0.013 0.0005 -0.013
0.011 0.0005 -0.011 0.013 0.0005 0.017 0.001 0.0005 0.001 0.017
0.0005 -0.017 0.001 0.0005 -0.001 0.017 0.0005 0.016 0.006 0.0005
0.006 0.016 0.0005 -0.016 0.006 0.0005 -0.006 0.016 0.0005 0.017
0.002 0.0005 0.002 0.017 0.0005 -0.017 0.002 0.0005 -0.002 0.017
0.0005 0.014 0.01 0.0005 0.01 0.014 0.0005 -0.014 0.01 0.0005
-0.01 0.014 0.0005 0.017 0.003 0.0005 0.003 0.017 0.0005 -0.017
0.003 0.0005 -0.003 0.017 0.0005 0.016 0.007 0.0005 0.007 0.016
0.0005 -0.016 0.007 0.0005 -0.007 0.016 0.0005 0.017 0.004 0.0005
0.004 0.017 0.0005 -0.017 0.004 0.0005 -0.004 0.017 0.0005 0.015
0.009 0.0005 0.009 0.015 0.0005 -0.015 0.009 0.0005 -0.009 0.015
0.0005 0.013 0.012 0.0005 0.012 0.013 0.0005 -0.012 0.013 0.0005
-0.013 0.012 0.0005 0.017 0.005 0.0005 0.005 0.017 0.0005 -0.017
0.005 0.0005 -0.005 0.017 0.0005 0.014 0.011 0.0005 0.011 0.014
0.0005 -0.014 0.011 0.0005 -0.011 0.014 0.0005 0.016 0.008 0.0005
0.008 0.016 0.0005 -0.016 0.008 0.0005 -0.008 0.016 0.0005 0.018
[...]
POINT_DATA 16001
FIELD attributes 17
p 1 16001 float
102634 102633 102609 102664 102609 102663 102590 102633 102697 102590 102610
102696 102662 102591 102694 102574 102631 102733 102574 102608 102732
102658 102575 102591 102729 102689 102558 102625 102772 102557 102605
102771 102652 102576 102725 102558 102591 102768 102683 102558 102577
102762 102718 102535 102614 102813 102535 102596 102812 102640 102535
102586 102809 102672 102559 102755 102534 102575 102803 102708 102506
102591 102855 102505 102576 102854 102619 102504 102574 102850 102653
102533 102558 102796 102746 102503 102570 102845 102693 102470 102559
102897 102469 102531 102546 102896 102786 102590 102501 102556 102837
102733 102468 102553 102893 102627 102467 102557 102887 102673 102496
102527 102827 102775 102434 102499 102938 102434 102493 102937 102541
102465 102547 102879 102716 102434 102527 102933 102589 102488 102817
102433 102550 102928 102645 102458 102512 102870 102762 102432 102540
102921 102695 102405 102419 102976 102404 102413 102975 102488 102405
102484 102972 102546 102443 102468 102860 102805 102426 102490 102913
102746 102405 102529 102967 102615 102406 102518 102962 102674 102414
102851 102413 102437 102904 102793 102384 102241 103011 102384 102250
103010 102389 102386 102432 103008 102495 102402 102449 102955 102731
102386 102553 103005 102583 102381 102378 102896 102841 102387 102555
103001 102655 102392 102404 102948 102783 102374 101885 103043 102374
101954 103043 102311 102376 102269 103042 102463 102382 102463 102996
102719 102339 102887 102376 102362 102349 102502 103040 102941 102833
102564 102371 102412 102991 102774 102376 102569 103038 102645 102371
101871 103075 102370 102332 102305 102042 103075 102934 102881 102099
102369 102484 103035 102712 102369 102274 103074 101983 102349 102349
102985 102827 102366 102447 103074 101896 102359 102419 103032 102771
102362 102511 103074 101784 102305 102928 102325 102288 102980 102876
102371 102163 103107 102353 102456 103073 101679 102369 102345 102352
102251 103107 103029 102824 102087 102364 102369 103107 101979 102358
102437 103108 101892 102342 102406 103072 101576 102292 102282 102975
102924 102350 102318 102287 102463 103109 103025 102874 101782 102325
102355 103071 101478 102339 102430 103109 101679 102364 102149 103141
102361 102230 103141 102080 102354 102268 102321 103142 102972 101976
102278 102275 103023 102922 102324 102397 103110 101577 102344 102376
103143 101884 102310 102305 103070 101387 102332 102411 103144 101780
102307 102352 103111 101481 102255 102265 103020 102971 102317 102395
103145 101681 102349 102274 102284 102163 103177 103069 101305 102346
102244 103177 102073 102337 102311 103178 101968 102297 102373 103147
101583 102288 102309 103112 101389 102326 102355 103179 101873 102311
102379 103180 101777 102253 103019 102243 102273 103068 101229 102274
102340 103148 101487 102289 102255 102288 102366 103181 103112 101306
101684 102322 102150 103216 102320 102219 103216 102057 102312 102276
103216 101954 102247 102307 103150 101394 102265 102342 103182 101590
102301 102242 102258 102322 103216 103068 101155 101862 102236 102277
103113 101228 102288 102341 103216 101774 102241 102318 103183 101494
102230 102291 103152 101308 102268 102327 103215 101687 102246 101079
102225 102297 103184 101400 102293 102153 103256 102241 102266 103113
101153 102291 102217 103256 102054 102247 102309 103215 101595 102284
102256 103254 101951 102234 102280 103153 101227 102275 102297 103253
101858 102235 102293 103215 101500 102264 102308 103251 101773 102226
102288 103185 101310 102243 102256 101076 100999 102244 102297 103248
101688 102256 102269 103153 101148 102237 102280 103214 101404 102267
102247 103293 102266 102236 102283 102276 103292 103186 102294 101224
102222 102286 103246 101597 102262 102309 103290 102289 102257 102320
103287 102286 102239 102278 103213 101311 102244 100996 102215 102279
103243 101502 102255 102307 103283 102283 102261 102260 100917 101070
102245 102273 103185 101143 102247 102284 103279 102277 102230 102272
103240 101406 102241 102277 103213 101223 102233 102269 103274 102271
102250 102285 103324 102249 102300 103323 102286 102247 102250 102248
102324 103320 102285 100915 100990 102238 102262 100837 101062 102249
102245 102272 102324 103316 103238 102284 101312 102227 102262 103270
102265 102248 102269 103212 101138 102256 102304 103311 102281 102265
102280 103306 102277 102231 102259 103265 102259 102235 102271 103236
101222 102249 100911 102243 102256 100836 100983 102261 102265 103300
102271 102240 102259 100764 101056 102243 102279 103347 102243 102283
103346 102284 102242 102298 103344 102283 102237 102262 103262 102254
102244 102305 103339 102283 102252 102226 102266 102260 103295 103235
102265 101136 102250 102299 103334 102281 102247 102250 100834 100905
102228 102263 103259 102248 102245 102239 102254 102259 103290 102259
100765 100977 102256 102286 103329 102277 102231 102261 100700 101054
102256 102275 103324 102271 102239 102280 103362 102233 102261 103286
102254 102240 102284 103361 102281 102199 102263 103257 102243 102239
102292 103359 102281 102247 102269 103319 102265 102241 100832 102240
102297 103356 102281 102241 102247 100765 100901 102240 102296 103352
102280 102235 102254 100700 100975 102226 102260 103282 102248 102239
102265 103314 102259 102240 102289 103348 102276 102197 102263 102237
100642 102238 102282 103344 102271 102231 102236 102238 102263 103311
102253 100765 100830 102221 102256 103280 102243 102238 102275 103371
102239 102273 103371 102276 102234 102243 100702 100900 102240 102277
103370 102278 102227 102275 103341 102265 102241 102219 102256 102282
103369 102231 102278 100643 102239 102287 103367 102278 102224 102258
103308 102248 102214 102212 102252 102270 103338 102237 102259 100589
102232 102288 103366 102275 102232 100765 102231 102228 100704 100829
102219 102226 102241 102286 103363 102225 102271 100645 102223 102251
103306 102243 102207 102266 103335 102253 102235 102270 103376 102236
102215 102243 102265 103377 102231 102274 100590 102237 102205 102282
102265 103377 103362 102265 102275 102238 102268 103378 102276 102206
102259 103334 102248 102220 102243 102237 100539 102236 102274 103379
102275 102226 102218 100705 100765 102195 102277 103360 102259 102225
102221 102220 100648 102230 102280 103379 102274 102215 102230 102226
100592 102211 102249 103332 102243 102218 102187 102271 102284 103379
103360 102253 102270 102215 102230 102231 100540 102232 102270 103384
102231 102258 103385 102272 102205 102286 103379 102265 102213 100706
102230 102221 102202 102248 103386 102213 102272 100650 102192 102262
103359 102248 102228 102215 102235 102249 103389 102237 102273 100493
102210 102209 102220 100595 102224 102256 103391 102273 102201 102283
103379 102259 102206 102215 102225 100542 102219 102267 103393 102272
102196 102248 103358 102243 102195 102276 103380 102254 102211 102217
102231 100494 102207 102280 103393 102268 102208 102195 102206 100651
102208 102184 102214 100598 102193 102198 102194 102290 103394 102219
102264 100545 102227 102257 103391 102226 102248 103392 102277 102197
102229 102238 100453 102188 102264 103380 102249 102221 102236 103394
102275 102215 102234 103397 102274 102199 102198 102225 100496 102188
102293 103395 102259 102206 102240 103399 102273 102186 102197 102183
102196 102174 102247 103378 102206 102244 100599 102199 102255 103401
102271 102195 102205 102232 100454 102197 102168 102213 100548 102182
102287 103397 102254 102193 102272 103402 102268 102191 102176 102219
100499 102184 102222 102238 100422 102185 102287 103404 102264 102220
102243 102179 102272 103398 102249 102217 102239 102211 102187 102180
102233 102225 100456 102202 102169 102167 102231 102198 102189 102190
102156 102206 100549 102179 102294 103405 102259 102191 102235 102176
102185 102152 102250 103396 102212 102244 100502 102186 102193 102232
100423 102185 102246 102172 102290 103407 102254 102183 102155 102218
100458 102179 102260 102171 102218 102239 100398 102153 102190 102179
102155 102182 102198 102176 102184 102161 102273 102225 100424 102175
102275 103408 102249 102209 102241 102207 102238 102178 102137 102206
100502 102202 102234 102194 102231 102172 102178 102130 102280 102212
100460 102186 102233 102173 102182 102232 100399 102175 102249 103406
102244 102179 102184 102131 102239 102218 100425 102166 102277 102170
102151 102183 102190 102172 102248 102176 102138 102178 102198 102167
102215 102239 100386 102178 102144 102225 100400 102173 102114 102205
100460 102169 102265 102169 102257 102195 102236 102181 102103 102211
100427 102195 102234 102193 102232 102172 102262 102188 102229 102173
102174 102232 100387 102172 102241 102183 102164 102228 102184 102179
102107 102218 100401 102174 102141 102179 102191 102177 102115 102177
102199 102177 102230 102174 102260 102179 102084 102205 100427 102164
102207 102168 102233 102179 102130 102225 100388 102177 102248 102180
102075 102211 100402 102166 102238 102183 102167 102153 102230 102180
102185 102184 102228 102161 102183 102121 102163 102178 102193 102184
102227 102169 102239 102175 102226 102183 102177 102088 102224 102217
100388 102183 102082 102178 102200 102180 102221 102173 102185 102052
102234 102206 100401 102176 102219 102169 102115 102167 102192 102167
102216 102179 102052 102211 100389 102155 102181 102184 102133 102178
102187 102178 102222 102188 102089 102179 102194 102162 102215 102156
102149 102173 102189 102047 102218 102177 102200 102171 102070 102174
102217 102176 102217 102164 102186 102203 102212 102178 102215 102179
102028 102205 100389 102177 102211 102167 102205 102173 102153 102101
102204 102174 102137 102178 102182 102187 102174 102188 102104 102178
102189 102172 102033 102165 102197 102195 102054 102179 102195 102174
102194 102163 102192 102178 102021 102176 102200 102172 102136 102158
102055 102163 102203 102165 102202 102178 102178 102169 102187 102169
102168 102010 102202 102153 102178 102175 102178 102113 102200 102177
102184 102202 102072 102177 102190 102178 102196 102161 102094 102176
102180 102181 102160 102020 102155 102173 102189 102175 102027 102177
102195 102157 102181 102175 102159 102004 102170 102156 102053 102152
102175 102126 102176 102160 102130 102176 102179 102190 102089 102175
102185 102159 102000 102154 102156 102156 102183 102158 102167 102171
102184 102170 102048 102175 102189 102163 102184 102170 102182 102145
102012 102161 102092 102175 102178 102152 102021 102176 102164 102153
102139 102169 102172 102157 101996 102143 102175 102155 102165 102111
102167 102173 102179 102172 102154 102152 102159 102071 102059 102173
102184 102160 102118 102141 102163 102148 102003 102125 102034 102165
102141 102145 102159 102155 102163 102149 102007 102157 102164 102160
102165 102152 102094 102145 102033 102163 102165 102157 102157 102127
102152 102165 102149 102128 102163 102171 102175 102144 102001 102146
102097 102170 102178 102156 102159 102116 102061 102155 102141 102145
102070 102154 102156 102134 102030 102148 102111 102141 102018 102152
102153 102155 102129 102135 102012 102137 102170 102129 102148 102139
102117 102168 102173 102139 102050 102158 102144 102160 102142 102095
102144 102120 102089 102163 102146 102165 102136 102016 102147 102154
102115 102127 102122 102058 102140 102169 102146 102170 102144 102115
102034 102136 102080 102132 102039 102133 102128 102184 102142 102143
102103 102138 102131 102167 102168 102129 102026 102124 102114 102169
102139 102135 102116 102117 102089 102130 102067 102135 102091 102146
102134 102127 102037 102164 102097 102062 102129 102164 102130 102166
102132 102137 102104 102167 102133 102132 102125 102167 102115 102046
102133 102127 102081 102124 102059 102165 102142 102131 102165 102132
102134 102127 102113 102130 102115 102117 102093 102119 102047 102157
102129 102086 102094 102142 102126 102138 102102 102121 102074 102099
102073 102119 102059 102126 102085 102136 102119 102170 102118 102169
102118 102168 102112 102065 102120 102130 102092 102144 102150 102167
102120 102122 102141 102125 102109 102165 102120 102115 102084 102123
102070 102121 102079 102158 102118 102118 102068 102092 102104 102121
102124 102084 102099 102134 102115 102109 102089 102134 102110 102114
102075 102120 102089 102112 102072 102156 102122 102079 102137 102160
102133 102103 102099 102149 102116 102085 102174 102111 102115 102082
102173 102111 102095 102133 102170 102112 102117 102093 102165 102111
102108 102074 102116 102075 102111 102118 102159 102109 102113 102081
102153 102106 102118 102077 102117 102083 102115 102106 102145 102101
102154 102170 102122 102170 102110 102074 102102 102077 102106 102076
102103 102159 102137 102095 102117 102074 102116 102096 102108 102145
102125 102087 102109 102072 102172 102105 102171 102112 102131 102105
102102 102075 102168 102104 102115 102078 102113 102097 102086 102073
102162 102102 102172 102153 102145 102182 102098 102116 102069 102110
102114 102119 102180 102112 102070 102144 102094 102106 102170 102134
102094 102079 102088 102109 102073 102095 102099 102103 102064 102110
102156 102114 102068 102123 102081 102105 102136 102111 102072 102107
102062 102166 102186 102102 102074 102085 102138 102192 102087 102110
102070 102163 102100 102163 102099 102109 102063 102162 102114 102188
102098 102157 102094 102093 102115 102152 102109 102176 102089 102113
102062 102113 102057 102144 102083 102091 102078 102107 102071 102104
102156 102075 102098 102141 102077 102110 102064 102111 102053 102180
102136 102154 102195 102069 102088 102133 102125 102197 102101 102073
102129 102060 102077 102106 102189 102085 102112 102052 102106 102067
102068 102111 102098 102172 102153 102095 102153 102094 102126 102052
102154 102091 102153 102087 102114 102054 102152 102081 102080 102149
102088 102076 102126 102046 102104 102069 102148 102060 102166 102188
102093 102075 102136 102197 102145 102067 102110 102193 102110 102064
102125 102058 102127 102043 102139 102094 102180 102059 102072 102081
102099 102072 102138 102050 102125 102044 102076 102160 102044 102104
102103 102063 102137 102042 102144 102092 102144 102172 102091 102146
102187 102065 102137 102147 102088 102117 102188 102151 102122 102047
102083 102087 102074 102051 102087 102156 102076 102099 102092 102178
102067 102132 102037 102157 102069 102035 102114 102074 102162 102115
102052 102150 102061 102133 102035 102072 102077 102145 102052 102062
102142 102095 102070 102031 102095 102149 102169 102132 102035 102121
102174 102147 102043 102103 102058 102094 102168 102034 102121 102145
102035 102139 102091 102140 102070 102156 102089 102085 102072 102142
102086 102052 102081 102128 102039 102147 102081 102095 102064 102014
102101 102151 102073 102138 102056 102140 102030 102152 102065 102120
102046 102143 102149 102057 102031 102123 102121 102153 102135 102027
102072 102073 102095 102151 102031 102086 102090 102068 102150 102047
102068 102142 102007 102105 102106 102053 102134 102028 102151 102037
102050 102130 102056 102075 102081 102070 102146 102029 102140 102093
102141 102092 102129 102033 102028 102116 102011 102089 102143 102088
102094 102060 102146 102082 102112 102125 102143 102023 102149 102074
102090 102128 102007 102103 102065 102122 102149 102065 102119 102040
102072 102071 102149 102055 102037 102042 102113 102077 102139 102020
102085 102066 102148 102001 102090 102045 102023 102103 102103 102049
102130 102022 102147 102034 102060 102004 102094 102071 102093 102076
102078 102100 102069 102018 102078 102145 102025 102058 102098 102121
102027 102146 102098 102147 102096 102088 102057 102148 102091 102035
102092 102151 101996 102086 102085 102141 102018 102151 102077 102016
102085 102109 102035 102144 102067 102068 102069 102042 102071 102134
102015 102077 102064 102138 101999 102080 102056 102004 102077 102137
102058 102067 102044 102094 102043 102070 102044 102122 102017 101990
102075 102024 102068 102142 102032 102058 102068 102024 102070 102068
102068 102006 102065 102145 102022 102109 102022 102079 101993 102072
102053 102155 101991 102062 102106 102155 102103 102155 102097 102154
102090 102140 102015 102151 102081 102045 102067 102060 102068 102096
101982 102061 102031 102032 102143 102008 102068 102070 102020 102039
102068 102061 102005 102041 102131 102012 102135 102058 101990 102042
101983 102061 102133 102081 102041 102046 102118 101976 102042 102014
102054 102067 102029 102065 102058 102066 102135 102033 101994 102061
101969 102043 102105 102065 102051 102020 102138 102023 101993 102004
102164 102112 102163 101979 102011 102110 102161 101969 102046 102103
102044 102065 102157 102138 102016 102095 102052 101966 102016 102068
102012 102061 102150 102092 102029 102085 101955 102020 102051 102059
102147 102074 102131 102013 101979 102051 102142 102062 101949 102024
102076 102040 102050 102066 102138 102049 102030 102062 102122 102015
102043 102064 101951 102029 101996 102054 101964 102134 102036 101949
101976 101936 101987 102057 102049 102111 102022 101925 101995 102133
102026 101961 102036 102043 102063 102168 102115 102042 101922 102003
102067 102167 102014 102057 102112 102164 102107 102134 102020 102159
102099 102098 102031 102152 102041 102056 102090 101978 102044 101925
102010 102148 102079 102132 102018 102145 102067 101919 101937 102031
102059 102045 102065 101902 101953 102081 101937 102020 102041 101890
101967 101997 102050 102142 102054 102128 102036 102062 102021 101885
101979 102140 102042 101955 102030 102064 102049 102120 102028 101892
101990 102139 102041 102062 102032 102015 102054 102038 102064 102165
102112 102165 101907 102001 102110 101975 102041 102163 102108 102142
102027 102106 102036 101891 102160 102103 102048 101870 101914 102055
102158 101852 101934 102095 102155 101928 102014 102085 101844 101952
102142 102027 102030 102057 102042 102063 102155 101997 102048 102073
102092 102044 101849 101967 102041 102059 102155 102138 102031 102060
101951 102028 101868 101981 102152 102049 102079 102050 102039 102059
102130 102015 102051 102037 101842 101870 101894 101996 102151 101817
101897 102041 102042 102060 101975 102039 101802 101921 102159 102110
102159 102109 102152 102038 102119 102064 101803 101942 102054 102044
102159 102108 102159 101922 102012 102106 102158 102100 102030 102053
101820 101959 101998 102045 102150 102044 102058 102038 102157 102090
102108 102050 102154 102078 102055 102055 101950 102028 101851 101977
102145 102042 102154 101822 102066 101788 101856 101764 101887 102018
102047 102158 102097 101886 101995 102053 102056 102041 102054 101756
101913 102139 102048 101976 102038 102054 102055 101768 101935 102160
102049 101920 102014 102084 102053 102130 101799 101956 102053 102151
102109 102160 102046 102152 102109 102153 102108 102034 102048 102154
102107 102001 102042 102053 102052 102156 102102 101770 101810 102156
101841 101977 102047 101951 102030 101734 101848 102157 102092 102122
102056 102074 101713 101881 102052 102159 102080 101716 101908 102149
102051 101884 101998 102161 102068 102022 102042 102049 102048 102113
102056 101981 101743 101933 102038 102164 102058 102143 102069 102049
102056 101922 102019 101787 101956 102164 102051 101762 102102 102054
101717 101807 102137 102059 102041 101683 101846 102042 102163 102048
102146 102008 102038 102147 102149 101838 101981 102065 102046 102152
101670 101879 101957 102032 102155 102158 102050 101687 101908 102159
102131 102061 102092 102050 101886 102005 102165 101730 101934 102150
102054 102031 102037 102167 102060 101989 102037 102042 102123 102059
101784 101962 102163 102084 101929 101714 101764 102025 102046 102145
101668 101809 102058 101639 101847 102163 101640 101881 101842 101989
102115 102055 102017 102035 102052 102038 102138 102061 102161 101967
102036 102146 102078 102041 102147 101673 101911 102150 102154 102158
101895 102015 102154 101728 101941 102134 102106 102049 102062 102161
101721 102041 102035 102163 101668 101771 102000 102036 102148 102071