#           y             T         TMean   TPrime2Mean           U_x           U_y           U_z       UMean_x       UMean_y       UMean_z UPrime2Mea... UPrime2Mea... UPrime2Mea... UPrime2Mea... UPrime2Mea... UPrime2Mea...            O2           H2O          C3H8             p         pMean   pPrime2Mean           CO2
         0.03       287.914       288.584      0.306818       4.84792      -16.2677             0       3.36061       1.73281             0       19.0094      0.995171             0       47.3738             0             0       0.19945    1.0459e-15      0.132824        102048        103180        258845   1.91628e-15
    0.0301702       287.911       288.582      0.303872       4.62445      -16.2484             0       3.33781       1.76992             0       19.1169      0.898307             0       47.2946             0             0      0.199436   1.04594e-15      0.132886        102049        103180        258291   1.91635e-15
    0.0303403       287.908        288.58      0.300927       4.40098      -16.2291             0       3.31501       1.80702             0       19.2244      0.801443             0       47.2154             0             0      0.199422   1.04597e-15      0.132948        102050        103180        257737   1.91642e-15
    0.0305105       287.905       288.578      0.297982        4.1775      -16.2099             0       3.29221       1.84413             0       19.3318      0.704579             0       47.1362             0             0      0.199408   1.04601e-15       0.13301        102051        103180        257183   1.91649e-15
    0.0306807       287.903       288.576      0.295036       3.95403      -16.1906             0        3.2694       1.88123             0       19.4393      0.607715             0       47.0569             0             0      0.199393   1.04605e-15      0.133072        102052        103181        256629   1.91655e-15
    0.0308509         287.9       288.575      0.292091       3.73056      -16.1713             0        3.2466       1.91834             0       19.5468      0.510851             0       46.9777             0             0      0.199379   1.04608e-15      0.133135        102053        103181        256076   1.91662e-15
     0.031021       287.897       288.573      0.289286       3.50806      -16.1487             0        3.2262       1.95576             0        19.677      0.417499             0       46.8868             0             0      0.199365   1.04614e-15      0.133196        102054        103181        255512   1.91673e-15
    0.0311912       287.895        288.57      0.287475       3.29242      -16.1024             0       3.22278       1.99543             0        19.968      0.349064             0       46.7131             0             0      0.199351   1.04635e-15      0.133255        102055        103182        254878   1.91711e-15
    0.0313614       287.893       288.568      0.285664       3.07678       -16.056             0       3.21936        2.0351             0       20.2591      0.280629             0       46.5393             0             0      0.199338   1.04656e-15      0.133314        102056        103182        254244   1.91749e-15
    0.0315315        287.89       288.565      0.283854       2.86114      -16.0097             0       3.21595       2.07477             0       20.5501      0.212194             0       46.3656             0             0      0.199324   1.04677e-15      0.133373        102057        103183        253610   1.91787e-15
    0.0317017       287.888       288.563      0.282043        2.6455      -15.9634             0       3.21253       2.11444             0       20.8412      0.143759             0       46.1919             0             0      0.199311   1.04697e-15      0.133432        102059        103183        252976   1.91825e-15
    0.0318719       287.886       288.561      0.280232       2.42986       -15.917             0       3.20911       2.15411             0       21.1322     0.0753244             0       46.0181             0             0      0.199297   1.04718e-15      0.133492        102060        103184        252342   1.91863e-15
     0.032042       287.884       288.558      0.278748       2.21792      -15.8645             0       3.20935       2.19374             0       21.4739     0.0217716             0       45.8255             0             0      0.199283   1.04744e-15      0.133552        102061        103184        251700    1.9191e-15
    0.0322122       287.881       288.556      0.278257       2.01729      -15.7929             0       3.22071       2.23325             0       21.9698     0.0135735             0       45.5754             0             0      0.199269   1.04783e-15      0.133615        102063        103185        251031   1.91983e-15
    0.0323824       287.879       288.553      0.277767       1.81665      -15.7214             0       3.23207       2.27277             0       22.4657    0.00537546             0       45.3253             0             0      0.199254   1.04823e-15      0.133678        102064        103185        250363   1.92055e-15
    0.0325526       287.877       288.551      0.277276       1.61601      -15.6499             0       3.24343       2.31228             0       22.9617   -0.00282259             0       45.0752             0             0       0.19924   1.04863e-15      0.133741        102065        103186        249695   1.92128e-15
    0.0327227       287.875       288.548      0.276786       1.41538      -15.5783             0        3.2548       2.35179             0       23.4576    -0.0110206             0        44.825             0             0      0.199225   1.04902e-15      0.133804        102067        103187        249026   1.92201e-15
    0.0328929       287.873       288.546      0.276295       1.21474      -15.5068             0       3.26616        2.3913             0       23.9536    -0.0192187             0       44.5749             0             0       0.19921   1.04942e-15      0.133868        102068        103187        248358   1.92273e-15
    0.0330631        287.87       288.543        0.2762        1.0205      -15.4257             0       3.28033       2.43003             0       24.5563   -0.00220836             0       44.3038             0             0      0.199193   1.04999e-15      0.133945        102070        103188        247686   1.92378e-15
    0.0332332       287.868       288.541      0.276776      0.837132      -15.3285             0       3.29928       2.46744             0       25.3405     0.0576162             0       43.9969             0             0      0.199169   1.05086e-15      0.134047        102071        103189        247009   1.92537e-15
    0.0334034       287.865       288.538      0.277351      0.653758      -15.2312             0       3.31822       2.50484             0       26.1247      0.117441             0       43.6901             0             0      0.199146   1.05172e-15      0.134149        102073        103189        246332   1.92695e-15
    0.0335736       287.862       288.536      0.277927      0.470385      -15.1339             0       3.33716       2.54225             0       26.9089      0.177265             0       43.3832             0             0      0.199122   1.05259e-15       0.13425        102075        103190        245655   1.92854e-15
    0.0337437       287.859       288.533      0.278503      0.287012      -15.0366             0       3.35611       2.57965             0        27.693       0.23709             0       43.0763             0             0      0.199099   1.05346e-15      0.134352        102076        103191        244978   1.93013e-15
    0.0339139       287.857        288.53      0.279078      0.103639      -14.9394             0       3.37505       2.61705             0       28.4772      0.296914             0       42.7695             0             0      0.199076   1.05432e-15      0.134454        102078        103192        244301   1.93171e-15
    0.0340841       287.854       288.528      0.279981     -0.071724      -14.8294             0       3.39628       2.65235             0       29.4024      0.387767             0       42.4361             0             0      0.199046   1.05556e-15      0.134584        102079        103193        243625   1.93398e-15
    0.0342543       287.852       288.526      0.281218     -0.238887      -14.7065             0       3.41984        2.6855             0       30.4718      0.510387             0       42.0754             0             0      0.199009   1.05718e-15      0.134744        102081        103193        242949   1.93694e-15
    0.0344244        287.85       288.524      0.282455      -0.40605      -14.5836             0       3.44341       2.71865             0       31.5412      0.633007             0       41.7148             0             0      0.198972   1.05879e-15      0.134904        102083        103194        242273   1.93991e-15
    0.0345946       287.847       288.522      0.283692     -0.573214      -14.4607             0       3.46697       2.75179             0       32.6107      0.755627             0       41.3542             0             0      0.198935   1.06041e-15      0.135064        102084        103195        241598   1.94287e-15
    0.0347648       287.845       288.519      0.284929     -0.740377      -14.3378             0       3.49054       2.78494             0       33.6801      0.878247             0       40.9936             0             0      0.198899   1.06203e-15      0.135224        102086        103196        240922   1.94583e-15
    0.0349349       287.843       288.517      0.286166      -0.90754      -14.2149             0        3.5141       2.81809             0       34.7496       1.00087             0        40.633             0             0      0.198862   1.06364e-15      0.135384        102088        103197        240246   1.94879e-15
    0.0351051       287.841       288.516      0.287289      -1.06587      -14.0779             0       3.54088       2.84771             0       35.9076       1.13738             0       40.2388             0             0      0.198815   1.06574e-15      0.135585        102089        103198        239577   1.95264e-15
    0.0352753       287.839       288.514      0.288341      -1.21874      -13.9321             0       3.56966       2.87514             0       37.1204       1.28249             0       39.8237             0             0      0.198763   1.06814e-15      0.135812        102091        103199        238911   1.95703e-15
    0.0354454       287.838       288.513      0.289393      -1.37161      -13.7863             0       3.59844       2.90258             0       38.3332        1.4276             0       39.4087             0             0      0.198711   1.07053e-15      0.136039        102093        103200        238245   1.96142e-15
    0.0356156       287.836       288.512      0.290445      -1.52448      -13.6405             0       3.62722       2.93002             0       39.5461        1.5727             0       38.9936             0             0      0.198659   1.07293e-15      0.136266        102094        103201        237578   1.96581e-15
    0.0357858       287.835        288.51      0.291497      -1.67734      -13.4948             0         3.656       2.95745             0       40.7589       1.71781             0       38.5786             0             0      0.198607   1.07533e-15      0.136493        102096        103202        236912    1.9702e-15
     0.035956       287.833       288.509      0.292549      -1.83021       -13.349             0       3.68478       2.98489             0       41.9718       1.86292             0       38.1635             0             0      0.198554   1.07772e-15      0.136721        102098        103203        236246   1.97459e-15
    0.0361261       287.832       288.508      0.292656      -1.97395      -13.1911             0       3.71714       3.00736             0       43.1783       1.98027             0       37.7192             0             0      0.198493   1.08094e-15      0.136985        102099        103204        235608   1.98048e-15
    0.0362963        287.83       288.508      0.292434      -2.11449      -13.0289             0       3.75076        3.0281             0       44.3827       2.08791             0       37.2646             0             0       0.19843   1.08444e-15      0.137263        102101        103206        234980   1.98689e-15
    0.0364665       287.829       288.507      0.292211      -2.25504      -12.8668             0       3.78437       3.04885             0        45.587       2.19556             0       36.8101             0             0      0.198366   1.08794e-15      0.137541        102103        103207        234351   1.99331e-15
    0.0366366       287.827       288.507      0.291988      -2.39558      -12.7046             0       3.81798       3.06959             0       46.7914       2.30321             0       36.3555             0             0      0.198302   1.09144e-15      0.137818        102104        103208        233723   1.99973e-15
    0.0368068       287.826       288.507      0.291766      -2.53613      -12.5424             0       3.85159       3.09033             0       47.9957       2.41086             0       35.9009             0             0      0.198238   1.09494e-15      0.138096        102106        103209        233094   2.00614e-15
     0.036977       287.825       288.506      0.291543      -2.67668      -12.3803             0        3.8852       3.11107             0       49.2001        2.5185             0       35.4464             0             0      0.198174   1.09845e-15      0.138374        102108        103211        232466   2.01256e-15
    0.0371471       287.823       288.506      0.289656      -2.80808      -12.2115             0       3.92277       3.12394             0       50.2791       2.59459             0       34.9673             0             0      0.198088   1.10305e-15      0.138748        102109        103212        231886     2.021e-15
    0.0373173       287.822       288.507      0.287509      -2.93805      -12.0418             0       3.96096       3.13559             0       51.3385       2.66574             0       34.4843             0             0      0.197998   1.10783e-15      0.139138        102111        103213        231314   2.02976e-15
    0.0374875       287.821       288.507      0.285362      -3.06802       -11.872             0       3.99915       3.14723             0        52.398       2.73688             0       34.0014             0             0      0.197909   1.11261e-15      0.139527        102113        103214        230742   2.03852e-15
    0.0376577        287.82       288.507      0.283215      -3.19799      -11.7022             0       4.03734       3.15887             0       53.4574       2.80803             0       33.5185             0             0      0.197819    1.1174e-15      0.139917        102114        103216        230170   2.04728e-15
    0.0378278       287.819       288.508      0.281067      -3.32796      -11.5324             0       4.07553       3.17052             0       54.5168       2.87918             0       33.0355             0             0       0.19773   1.12218e-15      0.140306        102116        103217        229598   2.05604e-15
     0.037998       287.818       288.508       0.27892      -3.45793      -11.3627             0       4.11372       3.18216             0       55.5762       2.95033             0       32.5526             0             0       0.19764   1.12696e-15      0.140696        102117        103218        229026   2.06479e-15
    0.0381682       287.818       288.508      0.274926      -3.57789      -11.1944             0       4.15708        3.1821             0       56.3752       3.05535             0       32.0394             0             0      0.197498   1.13324e-15      0.141311        102119        103220        228530   2.07631e-15
    0.0383383       287.819       288.508      0.270909      -3.69773      -11.0261             0        4.2005       3.18191             0       57.1711       3.16077             0       31.5257             0             0      0.197356   1.13955e-15      0.141929        102120        103221        228035   2.08786e-15
    0.0385085       287.819       288.509      0.266893      -3.81758      -10.8577             0       4.24391       3.18172             0        57.967        3.2662             0       31.0121             0             0      0.197214   1.14585e-15      0.142547        102122        103223        227541   2.09941e-15
    0.0386787       287.819       288.509      0.262876      -3.93742      -10.6894             0       4.28733       3.18152             0       58.7629       3.37162             0       30.4985             0             0      0.197072   1.15215e-15      0.143164        102123        103224        227046   2.11096e-15
    0.0388488       287.819       288.509       0.25886      -4.05726      -10.5211             0       4.33075       3.18133             0       59.5587       3.47704             0       29.9849             0             0       0.19693   1.15846e-15      0.143782        102125        103225        226552   2.12251e-15
     0.039019       287.819       288.509      0.254736      -4.17579      -10.3538             0       4.37451       3.17975             0       60.3227       3.59188             0       29.4669             0             0      0.196781   1.16498e-15       0.14443        102126        103227        226067   2.13445e-15
    0.0391892        287.82       288.509      0.249755      -4.28397      -10.1937             0       4.42104        3.1671             0       60.8326        3.7815             0       28.9147             0             0      0.196577   1.17322e-15      0.145318        102128        103228        225661   2.14956e-15
    0.0393594       287.821       288.509      0.244774      -4.39215      -10.0336             0       4.46756       3.15445             0       61.3425       3.97112             0       28.3624             0             0      0.196373   1.18146e-15      0.146206        102129        103230        225255   2.16466e-15
    0.0395295       287.822       288.509      0.239793      -4.50032      -9.87348             0       4.51408       3.14181             0       61.8524       4.16074             0       27.8102             0             0      0.196169   1.18971e-15      0.147093        102130        103231        224849   2.17977e-15
    0.0396997       287.823       288.508      0.234812       -4.6085      -9.71339             0        4.5606       3.12916             0       62.3623       4.35036             0       27.2579             0             0      0.195964   1.19795e-15      0.147981        102132        103232        224443   2.19487e-15
    0.0398699       287.823       288.508      0.229831      -4.71667      -9.55329             0       4.60713       3.11651             0       62.8723       4.53999             0       26.7057             0             0       0.19576   1.20619e-15      0.148869        102133        103234        224037   2.20997e-15
      0.04004       287.825       288.508      0.224986      -4.82146      -9.39554             0       4.65359       3.10162             0       63.3278       4.74182             0       26.1462             0             0      0.195537   1.21488e-15      0.149839        102134        103235        223653   2.22589e-15
    0.0402102       287.827       288.507      0.220582      -4.91524      -9.24542             0       4.69988       3.07943             0       63.6064       4.98332             0       25.5633             0             0      0.195252     1.225e-15      0.151076        102135        103237        223340   2.24442e-15
    0.0403804        287.83       288.506      0.216177      -5.00902      -9.09529             0       4.74617       3.05724             0       63.8851       5.22483             0       24.9803             0             0      0.194968   1.23511e-15      0.152314        102136        103238        223027   2.26296e-15
    0.0405506       287.833       288.506      0.211772       -5.1028      -8.94516             0       4.79246       3.03505             0       64.1638       5.46634             0       24.3974             0             0      0.194683   1.24523e-15      0.153551        102138        103240        222714    2.2815e-15
    0.0407207       287.836       288.505      0.207368      -5.19657      -8.79503             0       4.83875       3.01286             0       64.4425       5.70785             0       23.8144             0             0      0.194399   1.25535e-15      0.154788        102139        103241        222401   2.30003e-15
    0.0408909       287.838       288.504      0.202963      -5.29035       -8.6449             0       4.88504       2.99068             0       64.7211       5.94936             0       23.2315             0             0      0.194114   1.26547e-15      0.156025        102140        103243        222088   2.31857e-15
    0.0410611       287.842       288.503      0.198965      -5.37741      -8.49665             0       4.93022       2.96649             0       64.9481       6.17861             0       22.6472             0             0      0.193787   1.27674e-15       0.15745        102141        103244        221808   2.33923e-15
    0.0412312       287.848       288.502      0.195694      -5.45246      -8.35176             0       4.97341       2.93873             0       65.0827       6.38596             0       22.0605             0             0      0.193382   1.29009e-15       0.15921        102142        103246        221586   2.36368e-15
    0.0414014       287.853       288.501      0.192423      -5.52752      -8.20688             0        5.0166       2.91096             0       65.2173       6.59332             0       21.4738             0             0      0.192977   1.30343e-15       0.16097        102143        103247        221364   2.38813e-15
    0.0415716       287.859         288.5      0.189151      -5.60257      -8.06199             0        5.0598        2.8832             0       65.3519       6.80067             0       20.8871             0             0      0.192572   1.31678e-15      0.162729        102144        103249        221142   2.41258e-15
    0.0417417       287.864       288.499       0.18588      -5.67762      -7.91711             0       5.10299       2.85544             0       65.4865       7.00802             0       20.3004             0             0      0.192168   1.33012e-15      0.164489        102145        103250        220920   2.43703e-15
    0.0419119        287.87       288.498      0.182609      -5.75268      -7.77222             0       5.14618       2.82768             0       65.6211       7.21538             0       19.7138             0             0      0.191763   1.34346e-15      0.166249        102146        103251        220698   2.46148e-15
    0.0420821       287.875       288.497       0.18002       -5.8156      -7.62597             0       5.18498       2.79826             0       65.7298       7.37106             0       19.1374             0             0      0.191299   1.35827e-15      0.168267        102147        103253        220514    2.4886e-15
    0.0422523       287.881       288.495      0.178164      -5.86549      -7.47826             0       5.21906       2.76708             0       65.8109        7.4713             0       18.5722             0             0      0.190771   1.37463e-15      0.170562        102148        103254        220371   2.51858e-15
    0.0424224       287.888       288.493      0.176308      -5.91539      -7.33055             0       5.25315        2.7359             0       65.8919       7.57153             0       18.0069             0             0      0.190243     1.391e-15      0.172857        102149        103256        220229   2.54856e-15
    0.0425926       287.894       288.491      0.174452      -5.96528      -7.18284             0       5.28723       2.70471             0       65.9729       7.67177             0       17.4416             0             0      0.189715   1.40736e-15      0.175152        102150        103257        220086   2.57855e-15
    0.0427628         287.9        288.49      0.172596      -6.01518      -7.03514             0       5.32131       2.67353             0       66.0539         7.772             0       16.8764             0             0      0.189187   1.42372e-15      0.177447        102151        103259        219943   2.60853e-15
    0.0429329       287.906       288.488       0.17074      -6.06508      -6.88743             0       5.35539       2.64235             0       66.1349       7.87224             0       16.3111             0             0      0.188659   1.44009e-15      0.179742        102152        103260        219800   2.63851e-15
    0.0431031        287.91       288.486      0.169916      -6.09606      -6.73381             0       5.37979        2.6088             0       66.1514       7.89971             0       15.7549             0             0      0.188051   1.45807e-15      0.182386        102153        103262        219703   2.67145e-15
    0.0432733       287.914       288.483      0.169763      -6.11475      -6.57635             0       5.39789       2.57372             0       66.1258       7.87985             0       15.2046             0             0      0.187391   1.47709e-15      0.185256        102154        103263        219637    2.7063e-15
    0.0434434       287.918        288.48       0.16961      -6.13344       -6.4189             0       5.41598       2.53864             0       66.1002          7.86             0       14.6543             0             0      0.186731   1.49611e-15      0.188127        102154        103264        219571   2.74115e-15
    0.0436136       287.922       288.477      0.169457      -6.15213      -6.26144             0       5.43408       2.50357             0       66.0746       7.84014             0        14.104             0             0      0.186071   1.51513e-15      0.190997        102155        103266        219505   2.77601e-15
    0.0437838       287.926       288.474      0.169305      -6.17082      -6.10398             0       5.45218       2.46849             0        66.049       7.82029             0       13.5536             0             0      0.185411   1.53416e-15      0.193867        102156        103267        219439   2.81086e-15
     0.043954       287.929       288.472      0.169152      -6.18951      -5.94652             0       5.47028       2.43341             0       66.0233       7.80043             0       13.0033             0             0       0.18475   1.55318e-15      0.196737        102157        103268        219372   2.84571e-15
    0.0441241       287.931       288.468      0.169902      -6.18522      -5.78338             0        5.4761       2.39217             0       65.7929       7.71214             0        12.462             0             0      0.184003   1.57406e-15      0.199988        102158        103270        219365   2.88397e-15
    0.0442943       287.932       288.464      0.170987      -6.17241      -5.61812             0       5.47737       2.34865             0       65.4863       7.59846             0       11.9241             0             0      0.183223   1.59562e-15       0.20338        102159        103271        219380   2.92348e-15
    0.0444645       287.933        288.46      0.172072      -6.15961      -5.45287             0       5.47864       2.30512             0       65.1798       7.48479             0       11.3861             0             0      0.182443   1.61719e-15      0.206771        102159        103272        219394   2.96299e-15
    0.0446346       287.934       288.456      0.173157       -6.1468      -5.28762             0       5.47991        2.2616             0       64.8733       7.37111             0       10.8482             0             0      0.181663   1.63875e-15      0.210163        102160        103274        219409    3.0025e-15
    0.0448048       287.935       288.452      0.174242      -6.13399      -5.12236             0       5.48118       2.21808             0       64.5668       7.25744             0       10.3102             0             0      0.180882   1.66032e-15      0.213555        102161        103275        219423   3.04202e-15
     0.044975       287.936       288.448      0.175327      -6.12118      -4.95711             0       5.48245       2.17456             0       64.2603       7.14376             0       9.77228             0             0      0.180102   1.68189e-15      0.216946        102162        103276        219438   3.08153e-15
    0.0451451       287.936       288.443      0.176831      -6.08647      -4.79089             0       5.47037       2.11958             0       63.6532       6.95984             0       9.26345             0             0      0.179463   1.69836e-15      0.219728        102162        103278        219507   3.11171e-15
    0.0453153       287.936       288.438      0.178407      -6.04798      -4.62451             0         5.456       2.06263             0       62.9943        6.7638             0       8.75965             0             0      0.178847   1.71396e-15      0.222405        102163        103279        219586   3.14029e-15
    0.0454855       287.936       288.432      0.179983      -6.00949      -4.45813             0       5.44163       2.00567             0       62.3354       6.56776             0       8.25584             0             0      0.178231   1.72956e-15      0.225081        102164        103280        219665   3.16887e-15