#           y             T         TMean   TPrime2Mean           U_x           U_y           U_z       UMean_x       UMean_y       UMean_z UPrime2Mea... UPrime2Mea... UPrime2Mea... UPrime2Mea... UPrime2Mea... UPrime2Mea...            O2           H2O          C3H8             p         pMean   pPrime2Mean           CO2
         0.02       287.728       288.087       0.15912       22.8297      -3.61052             0       21.5582     -0.779801             0       42.8007      -2.29936             0       20.5097             0             0      0.227611   2.87918e-17     0.0103866        102167        103172        161532   5.27519e-17
    0.0201677       287.728       288.085      0.154472       22.7999      -3.65475             0       21.5729     -0.756736             0       42.6555       -1.4831             0       20.8679             0             0      0.227825   3.09769e-17    0.00945505        102168        103171        162226   5.67555e-17
    0.0203353       287.727       288.083      0.149823         22.77      -3.69897             0       21.5876     -0.733671             0       42.5104     -0.666842             0       21.2261             0             0       0.22804    3.3162e-17    0.00852352        102169        103170        162920    6.0759e-17
     0.020503       287.726       288.081      0.145175       22.7402       -3.7432             0       21.6023     -0.710606             0       42.3653      0.149418             0       21.5844             0             0      0.228254   3.53472e-17    0.00759198        102171        103170        163614   6.47626e-17
    0.0206707       287.726       288.079      0.140527       22.7103      -3.78742             0        21.617     -0.687542             0       42.2202      0.965678             0       21.9426             0             0      0.228468   3.75323e-17    0.00666045        102172        103169        164309   6.87661e-17
    0.0208383       287.725       288.077      0.135879       22.6805      -3.83165             0       21.6318     -0.664477             0       42.0751       1.78194             0       22.3008             0             0      0.228682   3.97174e-17    0.00572892        102173        103168        165003   7.27697e-17
     0.021006       287.724       288.075      0.131261       22.6455      -3.87442             0       21.6409     -0.641075             0       41.9349       2.60188             0       22.6614             0             0      0.228886   4.22163e-17    0.00484428        102175        103168        165699   7.73481e-17
    0.0211737       287.724       288.078      0.127446        22.471      -3.87807             0       21.5008     -0.608589             0        41.929       3.52101             0       23.0847             0             0      0.228799   5.31605e-17    0.00522186        102176        103167        166437   9.73999e-17
    0.0213413       287.723        288.08      0.123631       22.2966      -3.88172             0       21.3607     -0.576103             0        41.923       4.44014             0       23.5079             0             0      0.228712   6.41047e-17    0.00559944        102178        103166        167176   1.17452e-16
     0.021509       287.723       288.083      0.119817       22.1221      -3.88537             0       21.2206     -0.543617             0       41.9171       5.35927             0       23.9312             0             0      0.228625   7.50489e-17    0.00597703        102180        103166        167915   1.37504e-16
    0.0216767       287.723       288.086      0.116002       21.9477      -3.88903             0       21.0805     -0.511132             0       41.9111        6.2784             0       24.3545             0             0      0.228538   8.59931e-17    0.00635461        102182        103165        168654   1.57555e-16
    0.0218443       287.722       288.089      0.112187       21.7732      -3.89268             0       20.9404     -0.478646             0       41.9052       7.19753             0       24.7778             0             0      0.228452   9.69373e-17     0.0067322        102183        103164        169392   1.77607e-16
     0.022012       287.722       288.092      0.108493       21.5829      -3.88811             0         20.79      -0.44763             0       41.8888       8.10801             0       25.2081             0             0      0.228326   1.09764e-16    0.00727713        102185        103164        170137   2.01108e-16
    0.0221797       287.721       288.098      0.106359       21.1868      -3.77712             0        20.507      -0.43566             0       41.7376       8.90639             0       25.7295             0             0      0.227702   1.46982e-16    0.00999061        102187        103163        170951   2.69299e-16
    0.0223473       287.721       288.105      0.104225       20.7908      -3.66613             0        20.224      -0.42369             0       41.5863       9.70478             0        26.251             0             0      0.227078   1.84201e-16     0.0127041        102189        103162        171766   3.37491e-16
     0.022515        287.72       288.112      0.102091       20.3947      -3.55513             0       19.9411      -0.41172             0       41.4351       10.5032             0       26.7725             0             0      0.226454    2.2142e-16     0.0154176        102191        103162        172580   4.05682e-16
    0.0226827       287.719       288.119      0.099957       19.9986      -3.44414             0       19.6581      -0.39975             0       41.2839       11.3015             0       27.2939             0             0       0.22583   2.58638e-16      0.018131        102193        103161        173395   4.73874e-16
    0.0228504       287.719       288.125      0.097823       19.6025      -3.33315             0       19.3751      -0.38778             0       41.1326       12.0999             0       27.8154             0             0      0.225206   2.95857e-16     0.0208445        102195        103160        174209   5.42065e-16
     0.023018       287.719       288.132     0.0959209       19.1999      -3.22746             0       19.0807     -0.379621             0       40.9481       12.8666             0        28.362             0             0      0.224534    3.3514e-16     0.0237639        102197        103159        175034    6.1404e-16
    0.0231857       287.727       288.142     0.0959458       18.7425      -3.16585             0       18.6914     -0.403112             0       40.4877       13.3701             0       29.1172             0             0      0.223469   3.91573e-16     0.0283937        102199        103159        175948   7.17435e-16
    0.0233534       287.734       288.152     0.0959706       18.2851      -3.10425             0       18.3021     -0.426604             0       40.0272       13.8736             0       29.8725             0             0      0.222405   4.48006e-16     0.0330235        102201        103158        176861   8.20831e-16
     0.023521       287.741       288.162     0.0959954       17.8277      -3.04264             0       17.9129     -0.450095             0       39.5668       14.3771             0       30.6277             0             0       0.22134   5.04439e-16     0.0376533        102203        103157        177775   9.24226e-16
    0.0236887       287.749       288.171     0.0960202       17.3703      -2.98103             0       17.5236     -0.473587             0       39.1063       14.8806             0        31.383             0             0      0.220275   5.60872e-16     0.0422831        102205        103157        178689   1.02762e-15
    0.0238564       287.756       288.181     0.0960451        16.913      -2.91942             0       17.1344     -0.497078             0       38.6458       15.3841             0       32.1382             0             0       0.21921   6.17305e-16     0.0469129        102207        103156        179602   1.13102e-15
     0.024024       287.764       288.191     0.0962795       16.4952      -2.89664             0       16.7456     -0.526482             0       38.2332       15.8378             0        32.928             0             0      0.218178   6.70931e-16     0.0513999        102209        103155        180537   1.22927e-15
    0.0241917       287.778       288.202     0.0977674       16.3144      -3.10597             0       16.3598     -0.591238             0       38.1068       15.9936             0       33.9244             0             0      0.217342   7.07776e-16     0.0550332        102210        103155        181596   1.29678e-15
    0.0243594       287.791       288.212     0.0992552       16.1336      -3.31531             0        15.974     -0.655993             0       37.9804       16.1495             0       34.9208             0             0      0.216507    7.4462e-16     0.0586664        102212        103154        182656   1.36428e-15
     0.024527       287.804       288.222      0.100743       15.9528      -3.52464             0       15.5882     -0.720749             0        37.854       16.3054             0       35.9172             0             0      0.215671   7.81465e-16     0.0622996        102213        103153        183716   1.43179e-15
    0.0246947       287.817       288.233      0.102231        15.772      -3.73398             0       15.2025     -0.785505             0       37.7276       16.4613             0       36.9135             0             0      0.214835    8.1831e-16     0.0659328        102214        103152        184776    1.4993e-15
    0.0248624        287.83       288.243      0.103719       15.5912      -3.94331             0       14.8167      -0.85026             0       37.6011       16.6171             0       37.9099             0             0         0.214   8.55155e-16      0.069566        102216        103152        185835    1.5668e-15
      0.02503       287.843       288.253      0.105231       15.4305      -4.16835             0       14.4489     -0.920618             0       37.4867       16.7508             0       38.9456             0             0      0.213247   8.86556e-16     0.0728396        102217        103151        186928   1.62434e-15
    0.0251977       287.852       288.262      0.106852       15.3623      -4.46533             0       14.1637      -1.01665             0        37.427       16.7826             0       40.1613             0             0      0.212873    8.9301e-16      0.074465        102218        103149        188174   1.63616e-15
    0.0253654       287.862        288.27      0.108474        15.294      -4.76231             0       13.8785      -1.11269             0       37.3674       16.8145             0       41.3771             0             0      0.212499   8.99464e-16     0.0760904        102219        103148        189419   1.64799e-15
     0.025533       287.871       288.278      0.110096       15.2257      -5.05929             0       13.5933      -1.20872             0       37.3077       16.8463             0       42.5928             0             0      0.212125   9.05918e-16     0.0777158        102219        103147        190665   1.65981e-15
    0.0257007       287.881       288.286      0.111718       15.1574      -5.35627             0       13.3081      -1.30476             0       37.2481       16.8781             0       43.8085             0             0      0.211752   9.12373e-16     0.0793412        102220        103146        191910   1.67164e-15
    0.0258684        287.89       288.294       0.11334       15.0892      -5.65325             0       13.0229      -1.40079             0       37.1884         16.91             0       45.0243             0             0      0.211378   9.18827e-16     0.0809666        102221        103144        193156   1.68346e-15
     0.026036       287.899       288.302      0.114799        14.984       -5.9283             0       12.7514      -1.50046             0       37.0088       16.9268             0       46.2795             0             0      0.211046   9.22114e-16     0.0824066        102222        103143        194443   1.68949e-15
    0.0262037       287.903       288.305      0.115665       14.7444      -6.12321             0       12.5298      -1.61341             0       36.3912       16.8889             0        47.679             0             0      0.210871   9.13836e-16     0.0831698        102222        103142        195886   1.67432e-15
    0.0263714       287.908       288.309      0.116531       14.5047      -6.31813             0       12.3082      -1.72636             0       35.7735        16.851             0       49.0785             0             0      0.210695   9.05558e-16     0.0839329        102222        103140        197328   1.65915e-15
     0.026539       287.913       288.313      0.117397        14.265      -6.51305             0       12.0866      -1.83931             0       35.1559       16.8132             0       50.4779             0             0       0.21052    8.9728e-16      0.084696        102222        103138        198770   1.64398e-15
    0.0267067       287.918       288.316      0.118264       14.0253      -6.70796             0       11.8649      -1.95226             0       34.5383       16.7753             0       51.8774             0             0      0.210344   8.89002e-16     0.0854591        102222        103137        200212   1.62882e-15
    0.0268744       287.922        288.32       0.11913       13.7856      -6.90288             0       11.6433      -2.06521             0       33.9206       16.7374             0       53.2769             0             0      0.210169   8.80724e-16     0.0862223        102222        103135        201655   1.61365e-15
     0.027042       287.925       288.323       0.11989       13.5196      -7.09472             0       11.4153      -2.17887             0       33.2474       16.6576             0       54.7108             0             0      0.210064   8.70108e-16     0.0866762        102222        103134        203121    1.5942e-15
    0.0272097       287.921       288.325      0.120333       13.1752      -7.27737             0       11.1679      -2.29466             0       32.4079       16.4527             0       56.2475             0             0      0.210173   8.52504e-16     0.0862063        102222        103132        204659   1.56195e-15
    0.0273774       287.918       288.326      0.120776       12.8307      -7.46002             0       10.9205      -2.41046             0       31.5685       16.2477             0       57.7843             0             0      0.210281   8.34899e-16     0.0857364        102222        103130        206196   1.52969e-15
     0.027545       287.914       288.327      0.121219       12.4862      -7.64268             0       10.6731      -2.52625             0        30.729       16.0428             0        59.321             0             0      0.210389   8.17295e-16     0.0852665        102221        103128        207734   1.49744e-15
    0.0277127       287.911       288.328      0.121662       12.1418      -7.82533             0       10.4257      -2.64204             0       29.8896       15.8378             0       60.8577             0             0      0.210497   7.99691e-16     0.0847966        102221        103126        209272   1.46518e-15
    0.0278804       287.908        288.33      0.122106       11.7973      -8.00798             0       10.1783      -2.75783             0       29.0501       15.6329             0       62.3944             0             0      0.210605   7.82086e-16     0.0843266        102221        103124        210809   1.43293e-15
     0.028048       287.902       288.331      0.122526       11.4462      -8.18257             0       9.92427      -2.87508             0       28.1902       15.3757             0       63.9233             0             0      0.210816   7.63289e-16     0.0834105        102220        103122        212315   1.39849e-15
    0.0282157       287.891       288.332       0.12289       11.0785      -8.33706             0       9.65372      -2.99594             0       27.2792       14.9886             0       65.4325             0             0      0.211282   7.41522e-16     0.0813834        102220        103120        213742   1.35861e-15
    0.0283834       287.881       288.333      0.123254       10.7108      -8.49155             0       9.38317      -3.11681             0       26.3681       14.6015             0       66.9417             0             0      0.211748   7.19756e-16     0.0793563        102219        103118        215168   1.31873e-15
    0.0285511        287.87       288.334      0.123618       10.3432      -8.64604             0       9.11261      -3.23767             0       25.4571       14.2144             0       68.4509             0             0      0.212214   6.97989e-16     0.0773291        102219        103117        216595   1.27885e-15
    0.0287187       287.859       288.335      0.123982       9.97551      -8.80053             0       8.84206      -3.35853             0       24.5461       13.8273             0       69.9601             0             0      0.212681   6.76222e-16      0.075302        102218        103115        218021   1.23896e-15
    0.0288864       287.849       288.337      0.124346       9.60784      -8.95502             0       8.57151       -3.4794             0       23.6351       13.4402             0       71.4694             0             0      0.213147   6.54455e-16     0.0732749        102217        103113        219448   1.19908e-15
    0.0290541       287.839       288.338      0.124629       9.22647      -9.10155             0       8.29738      -3.60131             0       22.7556        12.988             0       72.8944             0             0      0.213622   6.35015e-16     0.0712071        102217        103111        220764   1.16347e-15
    0.0292217       287.832       288.338      0.124743       8.81628      -9.23133             0       8.01575      -3.72543             0       21.9425        12.399             0       74.1426             0             0      0.214118   6.20465e-16     0.0690539        102216        103109        221846   1.13681e-15
    0.0293894       287.825       288.339      0.124857        8.4061      -9.36111             0       7.73412      -3.84955             0       21.1294       11.8099             0       75.3908             0             0      0.214613   6.05916e-16     0.0669007        102215        103107        222928   1.11015e-15
    0.0295571       287.818        288.34      0.124971       7.99592      -9.49088             0       7.45249      -3.97367             0       20.3163       11.2209             0        76.639             0             0      0.215108   5.91366e-16     0.0647475        102214        103106        224011   1.08349e-15
    0.0297247       287.811       288.341      0.125085       7.58573      -9.62066             0       7.17086      -4.09779             0       19.5032       10.6319             0       77.8872             0             0      0.215603   5.76816e-16     0.0625943        102213        103104        225093   1.05683e-15
    0.0298924       287.804       288.341      0.125199       7.17555      -9.75044             0       6.88922      -4.22191             0       18.6901       10.0429             0       79.1354             0             0      0.216099   5.62266e-16     0.0604411        102212        103102        226175   1.03018e-15
    0.0300601       287.799       288.342      0.125231       6.76124      -9.86851             0       6.60364      -4.34474             0       18.0549       9.38271             0        80.234             0             0       0.21651   5.50985e-16      0.058651        102212        103100        227084   1.00951e-15
    0.0302277       287.799       288.342      0.125114       6.33953       -9.9656             0       6.31096      -4.46526             0       17.7384       8.59486             0       81.0646             0             0      0.216772   5.45558e-16     0.0575113        102210        103099        227682   9.99564e-16
    0.0303954       287.798       288.343      0.124997       5.91782      -10.0627             0       6.01829      -4.58578             0       17.4218       7.80701             0       81.8951             0             0      0.217035   5.40131e-16     0.0563717        102209        103098        228279   9.89621e-16
    0.0305631       287.798       288.343      0.124881       5.49611      -10.1598             0       5.72561       -4.7063             0       17.1053       7.01916             0       82.7257             0             0      0.217297   5.34704e-16      0.055232        102208        103097        228877   9.79678e-16
    0.0307307       287.797       288.344      0.124764       5.07441      -10.2569             0       5.43294      -4.82683             0       16.7887       6.23131             0       83.5562             0             0      0.217559   5.29277e-16     0.0540923        102207        103095        229474   9.69735e-16
    0.0308984       287.797       288.345      0.124648        4.6527       -10.354             0       5.14027      -4.94735             0       16.4722       5.44346             0       84.3868             0             0      0.217821    5.2385e-16     0.0529527        102206        103094        230072   9.59792e-16
    0.0310661       287.797       288.345      0.124541       4.23375      -10.4433             0       4.84773      -5.06448             0        16.352       4.64567             0       85.0289             0             0      0.217997   5.19987e-16      0.052187        102205        103093        230486   9.52714e-16
    0.0312337       287.798       288.345       0.12445       3.81905      -10.5208             0       4.55539       -5.1764             0       16.5339       3.83259             0       85.3812             0             0      0.218041   5.18529e-16     0.0519963        102204        103092        230618   9.50043e-16
    0.0314014       287.799       288.346       0.12436       3.40435      -10.5984             0       4.26306      -5.28832             0       16.7158       3.01951             0       85.7335             0             0      0.218085   5.17071e-16     0.0518056        102203        103091        230750   9.47372e-16
    0.0315691         287.8       288.346      0.124269       2.98965      -10.6759             0       3.97073      -5.40024             0       16.8977       2.20643             0       86.0858             0             0      0.218129   5.15613e-16     0.0516149        102202        103090        230882     9.447e-16
    0.0317367       287.802       288.347      0.124178       2.57495      -10.7534             0       3.67839      -5.51216             0       17.0795       1.39335             0       86.4382             0             0      0.218172   5.14155e-16     0.0514242        102201        103089        231013   9.42029e-16
    0.0319044       287.803       288.347      0.124088       2.16025      -10.8309             0       3.38606      -5.62409             0       17.2614      0.580265             0       86.7905             0             0      0.218216   5.12697e-16     0.0512336        102199        103089        231145   9.39357e-16
    0.0320721       287.804       288.347      0.123997       1.75475      -10.9012             0        3.1012      -5.73202             0        17.532     -0.159042             0       86.9561             0             0      0.218175    5.1266e-16     0.0514116        102198        103088        231132   9.39288e-16
    0.0322397       287.805       288.347      0.123906       1.36143      -10.9618             0       2.82626      -5.83467             0       17.9201     -0.800499             0        86.874             0             0      0.218022   5.14506e-16     0.0520785        102197        103087        230925    9.4267e-16
    0.0324074       287.805       288.347      0.123815      0.968116      -11.0225             0       2.55132      -5.93732             0       18.3083      -1.44196             0       86.7919             0             0      0.217869   5.16351e-16     0.0527455        102196        103087        230718   9.46052e-16
    0.0325751       287.806       288.347      0.123724      0.574801      -11.0832             0       2.27638      -6.03997             0       18.6964      -2.08341             0       86.7098             0             0      0.217715   5.18197e-16     0.0534125        102195        103087        230512   9.49434e-16
    0.0327427       287.806       288.347      0.123633      0.181486      -11.1439             0       2.00145      -6.14262             0       19.0845      -2.72487             0       86.6277             0             0      0.217562   5.20043e-16     0.0540795        102194        103086        230305   9.52817e-16
    0.0329104       287.807       288.347      0.123542     -0.211829      -11.2045             0       1.72651      -6.24527             0       19.4727      -3.36632             0       86.5456             0             0      0.217408   5.21889e-16     0.0547465        102193        103086        230099   9.56199e-16
    0.0330781       287.807       288.346      0.123474     -0.595007       -11.257             0        1.4636      -6.34273             0       19.8448      -3.86992             0       86.3024             0             0      0.217162   5.25493e-16     0.0558155        102192        103085        229810   9.62801e-16
    0.0332457       287.805       288.346      0.123432     -0.966554      -11.2999             0        1.2145      -6.43422             0       20.1984      -4.21533             0       85.8742             0             0       0.21681   5.31113e-16     0.0573458        102191        103085        229427   9.73098e-16
    0.0334134       287.804       288.345       0.12339       -1.3381      -11.3429             0      0.965407      -6.52571             0        20.552      -4.56073             0        85.446             0             0      0.216458   5.36733e-16     0.0588762        102190        103085        229045   9.83395e-16
    0.0335811       287.803       288.345      0.123348      -1.70965      -11.3859             0      0.716309      -6.61721             0       20.9057      -4.90614             0       85.0178             0             0      0.216106   5.42353e-16     0.0604065        102189        103085        228662   9.93693e-16
    0.0337487       287.801       288.344      0.123306      -2.08119      -11.4289             0      0.467212       -6.7087             0       21.2593      -5.25155             0       84.5896             0             0      0.215755   5.47974e-16     0.0619368        102189        103085        228280   1.00399e-15
    0.0339164         287.8       288.344      0.123264      -2.45274      -11.4719             0      0.218115       -6.8002             0       21.6129      -5.59696             0       84.1614             0             0      0.215403   5.53594e-16     0.0634672        102188        103085        227897   1.01429e-15
    0.0340841       287.799       288.343      0.123262      -2.81022      -11.5049             0    -0.0178893      -6.88419             0         21.89      -5.77661             0       83.6002             0             0      0.214949    5.6176e-16     0.0654382        102187        103085        227488   1.02925e-15
    0.0342518       287.798       288.343      0.123298      -3.15373       -11.528             0     -0.240879      -6.96072             0        22.091       -5.7915             0       82.9068             0             0      0.214395   5.72458e-16     0.0678472        102187        103085        227054   1.04885e-15
    0.0344194       287.797       288.342      0.123335      -3.49723      -11.5511             0     -0.463868      -7.03725             0        22.292      -5.80639             0       82.2135             0             0      0.213841   5.83156e-16     0.0702563        102187        103086        226619   1.06845e-15
    0.0345871       287.796       288.342      0.123371      -3.84073      -11.5742             0     -0.686857      -7.11379             0       22.4929      -5.82128             0       81.5202             0             0      0.213287   5.93854e-16     0.0726653        102187        103086        226185   1.08805e-15
    0.0347548       287.795       288.341      0.123407      -4.18423      -11.5972             0     -0.909847      -7.19032             0       22.6939      -5.83616             0       80.8268             0             0      0.212733   6.04552e-16     0.0750744        102186        103086        225750   1.10765e-15
    0.0349224       287.794        288.34      0.123444      -4.52773      -11.6203             0      -1.13284      -7.26685             0       22.8949      -5.85105             0       80.1335             0             0      0.212179    6.1525e-16     0.0774834        102186        103087        225316   1.12725e-15
    0.0350901       287.795        288.34      0.123551       -4.8518      -11.6307             0      -1.34424      -7.33325             0       23.0168      -5.72132             0       79.3201             0             0      0.211507   6.29192e-16     0.0804028        102186        103087        224897    1.1528e-15
    0.0352578       287.796        288.34      0.123719      -5.15913      -11.6301             0      -1.54566      -7.39092             0       23.0707      -5.46704             0       78.4035             0             0      0.210735   6.45929e-16     0.0837616        102186        103088        224491   1.18346e-15