#           y             T         TMean   TPrime2Mean           U_x           U_y           U_z       UMean_x       UMean_y       UMean_z UPrime2Mea... UPrime2Mea... UPrime2Mea... UPrime2Mea... UPrime2Mea... UPrime2Mea...            O2           H2O          C3H8             p         pMean   pPrime2Mean           CO2
         0.04       287.886       288.399       0.11165      -10.5749      -9.40253             0      -5.23062      -7.37469             0        21.176       7.23664             0       38.9925             0             0      0.199417   1.03892e-15      0.132972        102234        103132        215027    1.9035e-15
     0.039975       287.886       288.399      0.111799      -10.5583      -9.41758             0      -5.22319      -7.38155             0       21.2125       7.12959             0       39.1637             0             0      0.199416   1.03773e-15      0.132974        102234        103132        215035   1.90131e-15
    0.0399499       287.886       288.398      0.111949      -10.5417      -9.43263             0      -5.21576      -7.38841             0        21.249       7.02253             0       39.3349             0             0      0.199415   1.03653e-15      0.132977        102234        103131        215043   1.89913e-15
    0.0399249       287.885       288.398      0.112098       -10.525      -9.44769             0      -5.20833      -7.39527             0       21.2855       6.91547             0        39.506             0             0      0.199415   1.03534e-15       0.13298        102233        103131        215051   1.89694e-15
    0.0398999       287.885       288.398      0.112247      -10.5084      -9.46274             0       -5.2009      -7.40213             0        21.322       6.80841             0       39.6772             0             0      0.199414   1.03414e-15      0.132983        102233        103131        215058   1.89475e-15
    0.0398749       287.885       288.397      0.112397      -10.4917      -9.47779             0      -5.19346      -7.40899             0       21.3585       6.70135             0       39.8484             0             0      0.199413   1.03295e-15      0.132986        102233        103131        215066   1.89256e-15
    0.0398498       287.885       288.397      0.112546      -10.4751      -9.49284             0      -5.18603      -7.41584             0        21.395       6.59429             0       40.0196             0             0      0.199412   1.03176e-15      0.132989        102233        103130        215074   1.89037e-15
    0.0398248       287.884       288.397      0.112695      -10.4584      -9.50789             0       -5.1786       -7.4227             0       21.4315       6.48723             0       40.1908             0             0      0.199412   1.03056e-15      0.132992        102233        103130        215082   1.88818e-15
    0.0397998       287.884       288.396      0.112845      -10.4418      -9.52295             0      -5.17117      -7.42956             0        21.468       6.38018             0       40.3619             0             0      0.199411   1.02937e-15      0.132995        102233        103130        215089   1.88599e-15
    0.0397748       287.884       288.396      0.112994      -10.4251        -9.538             0      -5.16374      -7.43642             0       21.5045       6.27312             0       40.5331             0             0       0.19941   1.02817e-15      0.132998        102233        103130        215097    1.8838e-15
    0.0397497       287.884       288.396      0.113143      -10.4085      -9.55305             0       -5.1563      -7.44328             0        21.541       6.16606             0       40.7043             0             0       0.19941   1.02698e-15      0.133001        102233        103130        215105   1.88161e-15
    0.0397247       287.883       288.395      0.113293      -10.3919       -9.5681             0      -5.14887      -7.45013             0       21.5775         6.059             0       40.8755             0             0      0.199409   1.02578e-15      0.133004        102233        103129        215113   1.87942e-15
    0.0396997       287.883       288.395      0.113442      -10.3752      -9.58315             0      -5.14144      -7.45699             0        21.614       5.95194             0       41.0467             0             0      0.199408   1.02459e-15      0.133007        102233        103129        215120   1.87723e-15
    0.0396747       287.883       288.395      0.113591      -10.3586      -9.59821             0      -5.13401      -7.46385             0       21.6505       5.84488             0       41.2178             0             0      0.199408   1.02339e-15       0.13301        102233        103129        215128   1.87504e-15
    0.0396496       287.882       288.394      0.113741      -10.3419      -9.61326             0      -5.12658      -7.47071             0        21.687       5.73783             0        41.389             0             0      0.199407    1.0222e-15      0.133013        102233        103129        215136   1.87286e-15
    0.0396246       287.882       288.394       0.11389      -10.3253      -9.62831             0      -5.11915      -7.47757             0       21.7235       5.63077             0       41.5602             0             0      0.199406     1.021e-15      0.133016        102232        103128        215144   1.87067e-15
    0.0395996       287.882       288.394      0.114039      -10.3086      -9.64336             0      -5.11171      -7.48443             0         21.76       5.52371             0       41.7314             0             0      0.199406   1.01981e-15      0.133018        102232        103128        215151   1.86848e-15
    0.0395746       287.882       288.393      0.114189       -10.292      -9.65841             0      -5.10428      -7.49128             0       21.7966       5.41665             0       41.9026             0             0      0.199405   1.01861e-15      0.133021        102232        103128        215159   1.86629e-15
    0.0395495       287.881       288.393      0.114338      -10.2754      -9.67347             0      -5.09685      -7.49814             0       21.8331       5.30959             0       42.0737             0             0      0.199404   1.01742e-15      0.133024        102232        103128        215167    1.8641e-15
    0.0395245       287.881       288.393      0.114487      -10.2587      -9.68852             0      -5.08942        -7.505             0       21.8696       5.20253             0       42.2449             0             0      0.199404   1.01622e-15      0.133027        102232        103128        215175   1.86191e-15
    0.0394995       287.881       288.392      0.114637      -10.2421      -9.70357             0      -5.08199      -7.51186             0       21.9061       5.09547             0       42.4161             0             0      0.199403   1.01503e-15       0.13303        102232        103127        215182   1.85972e-15
    0.0394745       287.881       288.392      0.114786      -10.2254      -9.71862             0      -5.07455      -7.51872             0       21.9426       4.98842             0       42.5873             0             0      0.199402   1.01383e-15      0.133033        102232        103127        215190   1.85753e-15
    0.0394494        287.88       288.392      0.114935      -10.2088      -9.73367             0      -5.06712      -7.52558             0       21.9791       4.88136             0       42.7585             0             0      0.199402   1.01264e-15      0.133036        102232        103127        215198   1.85534e-15
    0.0394244        287.88       288.391      0.115085      -10.1921      -9.74872             0      -5.05969      -7.53243             0       22.0156        4.7743             0       42.9296             0             0      0.199401   1.01144e-15      0.133039        102232        103127        215206   1.85315e-15
    0.0393994        287.88       288.391      0.115234      -10.1755      -9.76378             0      -5.05226      -7.53929             0       22.0521       4.66724             0       43.1008             0             0        0.1994   1.01025e-15      0.133042        102232        103126        215213   1.85096e-15
    0.0393744        287.88       288.391      0.115383      -10.1589      -9.77883             0      -5.04483      -7.54615             0       22.0886       4.56018             0        43.272             0             0        0.1994   1.00905e-15      0.133045        102232        103126        215221   1.84877e-15
    0.0393493       287.879        288.39      0.115533      -10.1422      -9.79388             0       -5.0374      -7.55301             0       22.1251       4.45312             0       43.4432             0             0      0.199399   1.00786e-15      0.133048        102231        103126        215229   1.84658e-15
    0.0393243       287.879        288.39      0.115682      -10.1256      -9.80893             0      -5.02996      -7.55987             0       22.1616       4.34607             0       43.6144             0             0      0.199398   1.00666e-15      0.133051        102231        103126        215237    1.8444e-15
    0.0392993       287.879        288.39      0.115831      -10.1089      -9.82398             0      -5.02253      -7.56673             0       22.1981       4.23901             0       43.7855             0             0      0.199398   1.00547e-15      0.133054        102231        103125        215244   1.84221e-15
    0.0392743       287.879       288.389      0.115981      -10.0923      -9.83904             0       -5.0151      -7.57358             0       22.2346       4.13195             0       43.9567             0             0      0.199397   1.00427e-15      0.133057        102231        103125        215252   1.84002e-15
    0.0392492       287.878       288.389       0.11613      -10.0756      -9.85409             0      -5.00767      -7.58044             0       22.2711       4.02489             0       44.1279             0             0      0.199396   1.00308e-15      0.133059        102231        103125        215260   1.83783e-15
    0.0392242       287.878       288.389      0.116279       -10.059      -9.86914             0      -5.00024       -7.5873             0       22.3076       3.91783             0       44.2991             0             0      0.199396   1.00188e-15      0.133062        102231        103125        215268   1.83564e-15
    0.0391992       287.878       288.388      0.116429      -10.0424      -9.88419             0       -4.9928      -7.59416             0       22.3441       3.81077             0       44.4703             0             0      0.199395   1.00069e-15      0.133065        102231        103125        215275   1.83345e-15
    0.0391742       287.877       288.388      0.116578      -10.0257      -9.89924             0      -4.98537      -7.60102             0       22.3806       3.70372             0       44.6414             0             0      0.199394   9.99494e-16      0.133068        102231        103124        215283   1.83126e-15
    0.0391491       287.877       288.388      0.116727      -10.0091       -9.9143             0      -4.97794      -7.60788             0       22.4171       3.59666             0       44.8126             0             0      0.199394   9.98299e-16      0.133071        102231        103124        215291   1.82907e-15
    0.0391241       287.877       288.387      0.116877      -9.99243      -9.92935             0      -4.97051      -7.61473             0       22.4536        3.4896             0       44.9838             0             0      0.199393   9.97104e-16      0.133074        102231        103124        215299   1.82688e-15
    0.0390991       287.877       288.387      0.117026      -9.97579       -9.9444             0      -4.96308      -7.62159             0       22.4901       3.38254             0        45.155             0             0      0.199392    9.9591e-16      0.133077        102231        103124        215306   1.82469e-15
    0.0390741       287.876       288.387      0.117175      -9.95914      -9.95945             0      -4.95565      -7.62845             0       22.5266       3.27548             0       45.3262             0             0      0.199392   9.94715e-16       0.13308        102230        103123        215314    1.8225e-15
     0.039049       287.876       288.386      0.117325       -9.9425       -9.9745             0      -4.94821      -7.63531             0       22.5632       3.16842             0       45.4973             0             0      0.199391    9.9352e-16      0.133083        102230        103123        215322   1.82031e-15
     0.039024       287.876       288.386      0.117474      -9.92586      -9.98956             0      -4.94078      -7.64217             0       22.5997       3.06136             0       45.6685             0             0       0.19939   9.92325e-16      0.133086        102230        103123        215330   1.81813e-15
     0.038999       287.876       288.386      0.117622      -9.90891      -10.0045             0      -4.93312      -7.64889             0       22.6357       2.95493             0       45.8402             0             0       0.19939   9.91143e-16      0.133087        102230        103123        215338   1.81596e-15
     0.038974       287.875       288.385       0.11773      -9.88472      -10.0174             0      -4.91997      -7.65249             0       22.6603       2.86341             0       46.0246             0             0      0.199402   9.90261e-16      0.133036        102230        103123        215360   1.81434e-15
    0.0389489       287.875       288.385      0.117839      -9.86052      -10.0302             0      -4.90682      -7.65609             0       22.6849       2.77189             0        46.209             0             0      0.199413   9.89379e-16      0.132985        102230        103122        215383   1.81273e-15
    0.0389239       287.875       288.384      0.117948      -9.83633      -10.0431             0      -4.89366      -7.65969             0       22.7096       2.68037             0       46.3935             0             0      0.199425   9.88497e-16      0.132934        102230        103122        215405   1.81111e-15
    0.0388989       287.875       288.384      0.118056      -9.81213       -10.056             0      -4.88051      -7.66329             0       22.7342       2.58885             0       46.5779             0             0      0.199437   9.87615e-16      0.132883        102230        103122        215428    1.8095e-15
    0.0388739       287.874       288.384      0.118165      -9.78794      -10.0688             0      -4.86736      -7.66689             0       22.7588       2.49733             0       46.7623             0             0      0.199449   9.86733e-16      0.132832        102230        103122        215450   1.80788e-15
    0.0388488       287.874       288.383      0.118274      -9.76374      -10.0817             0      -4.85421      -7.67049             0       22.7834       2.40581             0       46.9467             0             0       0.19946   9.85851e-16      0.132782        102230        103121        215473   1.80626e-15
    0.0388238       287.874       288.383      0.118382      -9.73955      -10.0946             0      -4.84105      -7.67409             0       22.8081       2.31429             0       47.1311             0             0      0.199472   9.84969e-16      0.132731        102229        103121        215495   1.80465e-15
    0.0387988       287.873       288.383      0.118491      -9.71535      -10.1074             0       -4.8279      -7.67769             0       22.8327       2.22277             0       47.3155             0             0      0.199484   9.84087e-16       0.13268        102229        103121        215518   1.80303e-15
    0.0387738       287.873       288.382      0.118599      -9.69115      -10.1203             0      -4.81475      -7.68129             0       22.8573       2.13125             0       47.4999             0             0      0.199495   9.83205e-16      0.132629        102229        103121        215540   1.80142e-15
    0.0387487       287.873       288.382      0.118708      -9.66696      -10.1332             0       -4.8016      -7.68488             0       22.8819       2.03973             0       47.6843             0             0      0.199507   9.82323e-16      0.132578        102229        103121        215563    1.7998e-15
    0.0387237       287.873       288.382      0.118817      -9.64276       -10.146             0      -4.78844      -7.68848             0       22.9066       1.94821             0       47.8688             0             0      0.199519   9.81441e-16      0.132527        102229        103120        215585   1.79818e-15
    0.0386987       287.872       288.381      0.118925      -9.61857      -10.1589             0      -4.77529      -7.69208             0       22.9312       1.85669             0       48.0532             0             0       0.19953   9.80559e-16      0.132477        102229        103120        215608   1.79657e-15
    0.0386737       287.872       288.381      0.119034      -9.59437      -10.1717             0      -4.76214      -7.69568             0       22.9558       1.76517             0       48.2376             0             0      0.199542   9.79677e-16      0.132426        102229        103120        215630   1.79495e-15
    0.0386486       287.872        288.38      0.119143      -9.57018      -10.1846             0      -4.74899      -7.69928             0       22.9804       1.67365             0        48.422             0             0      0.199554   9.78795e-16      0.132375        102229        103120        215653   1.79334e-15
    0.0386236       287.871        288.38      0.119251      -9.54598      -10.1975             0      -4.73583      -7.70288             0       23.0051       1.58213             0       48.6064             0             0      0.199565   9.77913e-16      0.132324        102228        103119        215675   1.79172e-15
    0.0385986       287.871        288.38       0.11936      -9.52179      -10.2103             0      -4.72268      -7.70648             0       23.0297       1.49061             0       48.7908             0             0      0.199577   9.77031e-16      0.132273        102228        103119        215698    1.7901e-15
    0.0385736       287.871       288.379      0.119468      -9.49759      -10.2232             0      -4.70953      -7.71008             0       23.0543       1.39909             0       48.9752             0             0      0.199589   9.76149e-16      0.132222        102228        103119        215720   1.78849e-15
    0.0385485       287.871       288.379      0.119577      -9.47339      -10.2361             0      -4.69638      -7.71368             0       23.0789       1.30757             0       49.1596             0             0      0.199601   9.75267e-16      0.132172        102228        103119        215743   1.78687e-15
    0.0385235        287.87       288.379      0.119686       -9.4492      -10.2489             0      -4.68322      -7.71728             0       23.1036       1.21605             0       49.3441             0             0      0.199612   9.74385e-16      0.132121        102228        103119        215765   1.78526e-15
    0.0384985        287.87       288.378      0.119794        -9.425      -10.2618             0      -4.67007      -7.72087             0       23.1282       1.12453             0       49.5285             0             0      0.199624   9.73503e-16       0.13207        102228        103118        215788   1.78364e-15
    0.0384735        287.87       288.378      0.119903      -9.40081      -10.2747             0      -4.65692      -7.72447             0       23.1528       1.03301             0       49.7129             0             0      0.199636   9.72621e-16      0.132019        102228        103118        215810   1.78202e-15
    0.0384484        287.87       288.378      0.120012      -9.37661      -10.2875             0      -4.64377      -7.72807             0       23.1774      0.941494             0       49.8973             0             0      0.199647   9.71739e-16      0.131968        102228        103118        215832   1.78041e-15
    0.0384234       287.869       288.377       0.12012      -9.35242      -10.3004             0      -4.63062      -7.73167             0       23.2021      0.849974             0       50.0817             0             0      0.199659   9.70857e-16      0.131917        102228        103118        215855   1.77879e-15
    0.0383984       287.869       288.377      0.120229      -9.32822      -10.3132             0      -4.61746      -7.73527             0       23.2267      0.758455             0       50.2661             0             0      0.199671   9.69975e-16      0.131867        102227        103118        215877   1.77718e-15
    0.0383734       287.869       288.377      0.120337      -9.30403      -10.3261             0      -4.60431      -7.73887             0       23.2513      0.666935             0       50.4505             0             0      0.199682   9.69093e-16      0.131816        102227        103117        215900   1.77556e-15
    0.0383483       287.868       288.376      0.120446      -9.27983       -10.339             0      -4.59116      -7.74247             0       23.2759      0.575415             0        50.635             0             0      0.199694   9.68211e-16      0.131765        102227        103117        215922   1.77394e-15
    0.0383233       287.868       288.376      0.120555      -9.25564      -10.3518             0      -4.57801      -7.74607             0       23.3006      0.483896             0       50.8194             0             0      0.199706   9.67329e-16      0.131714        102227        103117        215945   1.77233e-15
    0.0382983       287.868       288.375      0.120663      -9.23144      -10.3647             0      -4.56485      -7.74967             0       23.3252      0.392376             0       51.0038             0             0      0.199717   9.66447e-16      0.131663        102227        103117        215967   1.77071e-15
    0.0382733       287.868       288.375      0.120772      -9.20724      -10.3776             0       -4.5517      -7.75327             0       23.3498      0.300856             0       51.1882             0             0      0.199729   9.65565e-16      0.131612        102227        103116        215990    1.7691e-15
    0.0382482       287.867       288.375      0.120881      -9.18305      -10.3904             0      -4.53855      -7.75686             0       23.3744      0.209336             0       51.3726             0             0      0.199741   9.64683e-16      0.131562        102227        103116        216012   1.76748e-15
    0.0382232       287.867       288.374      0.120989      -9.15885      -10.4033             0       -4.5254      -7.76046             0       23.3991      0.117817             0        51.557             0             0      0.199753   9.63801e-16      0.131511        102227        103116        216035   1.76586e-15
    0.0381982       287.867       288.374      0.121098      -9.13466      -10.4161             0      -4.51224      -7.76406             0       23.4237      0.026297             0       51.7414             0             0      0.199764   9.62919e-16       0.13146        102226        103116        216057   1.76425e-15
    0.0381732       287.866       288.374      0.121207      -9.11046       -10.429             0      -4.49909      -7.76766             0       23.4483    -0.0652227             0       51.9258             0             0      0.199776   9.62037e-16      0.131409        102226        103116        216080   1.76263e-15
    0.0381481       287.866       288.373      0.121315      -9.08627      -10.4419             0      -4.48594      -7.77126             0       23.4729     -0.156742             0       52.1103             0             0      0.199788   9.61155e-16      0.131358        102226        103115        216102   1.76102e-15
    0.0381231       287.866       288.373      0.121424      -9.06207      -10.4547             0      -4.47279      -7.77486             0       23.4976     -0.248262             0       52.2947             0             0      0.199799   9.60273e-16      0.131307        102226        103115        216125    1.7594e-15
    0.0380981       287.866       288.373      0.121532      -9.03788      -10.4676             0      -4.45963      -7.77846             0       23.5222     -0.339782             0       52.4791             0             0      0.199811   9.59391e-16      0.131257        102226        103115        216147   1.75778e-15
    0.0380731       287.865       288.372      0.121641      -9.01368      -10.4805             0      -4.44648      -7.78206             0       23.5468     -0.431301             0       52.6635             0             0      0.199823   9.58509e-16      0.131206        102226        103115        216170   1.75617e-15
     0.038048       287.865       288.372       0.12175      -8.98949      -10.4933             0      -4.43333      -7.78566             0       23.5714     -0.522821             0       52.8479             0             0      0.199834   9.57627e-16      0.131155        102226        103114        216192   1.75455e-15
     0.038023       287.865       288.371      0.121858      -8.96529      -10.5062             0      -4.42018      -7.78926             0       23.5961     -0.614341             0       53.0323             0             0      0.199846   9.56745e-16      0.131104        102226        103114        216215   1.75294e-15
     0.037998       287.865       288.371      0.121962      -8.94067      -10.5189             0      -4.40654      -7.79253             0       23.6186     -0.704129             0       53.2171             0             0      0.199859   9.55844e-16      0.131048        102226        103114        216238   1.75129e-15
     0.037973       287.864       288.371      0.122013      -8.91115      -10.5294             0      -4.38734      -7.79208             0       23.6172     -0.773999             0       53.4061             0             0      0.199885   9.54731e-16      0.130936        102225        103114        216272   1.74925e-15
    0.0379479       287.864       288.371      0.122064      -8.88163        -10.54             0      -4.36814      -7.79163             0       23.6157     -0.843869             0        53.595             0             0      0.199911   9.53618e-16      0.130823        102225        103114        216306   1.74721e-15
    0.0379229       287.864        288.37      0.122115      -8.85212      -10.5505             0      -4.34895      -7.79118             0       23.6143     -0.913739             0        53.784             0             0      0.199937   9.52505e-16       0.13071        102225        103114        216340   1.74517e-15
    0.0378979       287.864        288.37      0.122166       -8.8226      -10.5611             0      -4.32975      -7.79073             0       23.6129     -0.983609             0       53.9729             0             0      0.199963   9.51392e-16      0.130597        102225        103113        216374   1.74313e-15
    0.0378729       287.863        288.37      0.122217      -8.79308      -10.5716             0      -4.31055      -7.79028             0       23.6114      -1.05348             0       54.1619             0             0      0.199989   9.50279e-16      0.130485        102225        103113        216408   1.74109e-15
    0.0378478       287.863       288.369      0.122268      -8.76357      -10.5821             0      -4.29135      -7.78983             0         23.61      -1.12335             0       54.3509             0             0      0.200014   9.49166e-16      0.130372        102225        103113        216443   1.73905e-15
    0.0378228       287.863       288.369      0.122319      -8.73405      -10.5927             0      -4.27215      -7.78938             0       23.6086      -1.19322             0       54.5398             0             0       0.20004   9.48053e-16      0.130259        102225        103113        216477   1.73701e-15
    0.0377978       287.863       288.369       0.12237      -8.70453      -10.6032             0      -4.25295      -7.78893             0       23.6071      -1.26309             0       54.7288             0             0      0.200066    9.4694e-16      0.130147        102225        103113        216511   1.73497e-15
    0.0377728       287.862       288.369      0.122421      -8.67501      -10.6138             0      -4.23376      -7.78849             0       23.6057      -1.33296             0       54.9177             0             0      0.200092   9.45827e-16      0.130034        102225        103112        216545   1.73293e-15
    0.0377477       287.862       288.368      0.122472       -8.6455      -10.6243             0      -4.21456      -7.78804             0       23.6043      -1.40283             0       55.1067             0             0      0.200118   9.44714e-16      0.129921        102224        103112        216579   1.73089e-15
    0.0377227       287.862       288.368      0.122523      -8.61598      -10.6349             0      -4.19536      -7.78759             0       23.6028       -1.4727             0       55.2957             0             0      0.200144     9.436e-16      0.129809        102224        103112        216613   1.72885e-15