#           y             T         TMean   TPrime2Mean           U_x           U_y           U_z       UMean_x       UMean_y       UMean_z UPrime2Mea... UPrime2Mea... UPrime2Mea... UPrime2Mea... UPrime2Mea... UPrime2Mea...            O2           H2O          C3H8             p         pMean   pPrime2Mean           CO2
  1.11022e-19       288.307       288.595     0.0950038       22.0688   -3.8437e-17             0       12.3583   3.61567e-18             0       36.6946   1.20876e-17             0   5.64823e-18             0             0      0.180491   2.29286e-15      0.215258        102605        103229        254492   4.20094e-15
  0.000500501       288.312       288.604      0.091955       21.6943     -0.173278             0       12.3464     0.0162998             0       36.3841     0.0544924             0     0.0254628             0             0      0.180541   2.30899e-15      0.215038        102605        103229        254492    4.2305e-15
     0.001001       288.316       288.612     0.0889036       21.3186      -0.34658             0       12.3345     0.0325988             0       36.0721       0.10902             0     0.0509996             0             0      0.180593    2.3251e-15      0.214811        102605        103229        254491   4.26001e-15
    0.0015015       288.296       288.625     0.0845153       20.3829     -0.531915             0        12.295     0.0484873             0       35.0015      0.181205             0      0.113437             0             0      0.181386   2.32688e-15      0.211366        102605        103229        254483   4.26328e-15
     0.002002       288.275       288.638     0.0801389       19.4471     -0.717273             0       12.2555     0.0643683             0       33.9293      0.253398             0      0.176049             0             0      0.182183   2.32847e-15      0.207902        102605        103228        254474   4.26618e-15
    0.0025025       288.208       288.643     0.0787305       18.4715     -0.908707             0       12.2011     0.0783603             0       32.4456      0.327548             0      0.281924             0             0      0.184068   2.28033e-15      0.199706        102604        103228        254454   4.17799e-15
     0.003003       288.141       288.648     0.0773311       17.4982      -1.10018             0       12.1468     0.0923381             0       30.9631      0.401576             0       0.38805             0             0       0.18596   2.23195e-15      0.191479        102604        103228        254433   4.08935e-15
    0.0035035       288.055        288.65     0.0774398       16.8873      -1.29807             0       12.0996      0.103954             0       29.6775      0.455484             0      0.535945             0             0      0.189045   2.14325e-15      0.178063        102604        103228        254408   3.92683e-15
     0.004004       287.969       288.651     0.0775635       16.2791      -1.49596             0       12.0526      0.115558             0       28.3937      0.509234             0      0.684126             0             0      0.192151     2.054e-15       0.16456        102604        103228        254383   3.76331e-15
    0.0045045       287.871       288.651     0.0795324        16.009      -1.69302             0       12.0149      0.125668             0       27.3449      0.543434             0      0.867955             0             0      0.197746   1.89684e-15      0.140233        102604        103227        254335   3.47537e-15
   0.00500501       287.774        288.65     0.0815045       15.7404       -1.8901             0       11.9773      0.135771             0       26.2976      0.577493             0       1.05206             0             0      0.203348   1.73933e-15      0.115878        102604        103227        254287   3.18678e-15
   0.00550551       287.761       288.649     0.0837851       15.6202      -2.08919             0       11.9446      0.145161             0       25.3958      0.597605             0       1.26299             0             0      0.209615   1.54634e-15      0.088631        102604        103227        254217   2.83318e-15
   0.00600601        287.75       288.648     0.0860159       15.5005      -2.28836             0       11.9119      0.154542             0       24.4961      0.617472             0       1.47418             0             0      0.215851    1.3536e-15     0.0615172        102603        103226        254148   2.48005e-15
   0.00650651       287.904       288.648     0.0841407       15.4271      -2.49447             0       11.8848       0.16313             0       23.7766      0.617152             0       1.70637             0             0      0.219573   1.18179e-15     0.0453341        102603        103226        254053   2.16526e-15
   0.00700701       288.058       288.649     0.0822346       15.3543      -2.70073             0       11.8579      0.171705             0       23.0606      0.616427             0       1.93887             0             0      0.223266   1.01044e-15     0.0292782        102602        103226        253958   1.85132e-15
   0.00750751         288.2       288.651     0.0781534       15.3202      -2.91757             0       11.8401      0.179353             0       22.5841      0.587161             0       2.19321             0             0        0.2249   8.71947e-16     0.0221747        102602        103226        253839   1.59757e-15
   0.00800801       288.339       288.653     0.0740955       15.2862      -3.13454             0       11.8225      0.186988             0       22.1109      0.557476             0       2.44794             0             0      0.226519   7.34225e-16     0.0151344        102602        103225        253719   1.34524e-15
   0.00850851       288.369       288.654     0.0714755       15.2559      -3.35936             0       11.8118      0.193886             0       21.8433      0.502056             0       2.72735             0             0      0.227245   6.44119e-16      0.011979        102601        103225        253581   1.18015e-15
   0.00900901       288.398       288.655     0.0688785       15.2249      -3.58414             0        11.801      0.200777             0       21.5773      0.446387             0       3.00723             0             0      0.227964    5.5444e-16    0.00885234        102601        103225        253443   1.01584e-15
   0.00950951       288.394       288.656     0.0675345       15.1556      -3.80682             0       11.7899      0.207271             0       21.3984      0.377173             0       3.31311             0             0      0.228323   4.88095e-16     0.0072912        102600        103224        253295   8.94281e-16
      0.01001       288.389       288.657     0.0662067       15.0855      -4.02947             0       11.7787      0.213756             0       21.2191      0.307803             0       3.61962             0             0       0.22868   4.21989e-16    0.00574063        102600        103224        253147   7.73162e-16
    0.0105105       288.378       288.659     0.0656674       14.9771      -4.25046             0       11.7616      0.219835             0       21.0269      0.230752             0       3.95666             0             0      0.228917   3.67613e-16    0.00470763        102599        103224        253001   6.73536e-16
     0.011011       288.366        288.66     0.0651378       14.8686       -4.4717             0       11.7444      0.225901             0        20.833      0.153523             0       4.29451             0             0      0.229151   3.13859e-16     0.0036908        102598        103224        252854   5.75049e-16
    0.0115115       288.356       288.661     0.0650376       14.7517      -4.70422             0       11.7184      0.231354             0       20.5655     0.0683759             0       4.66792             0             0       0.22922   2.87762e-16    0.00339314        102597        103223        252713   5.27233e-16
     0.012012       288.346       288.662     0.0649368       14.6353      -4.93733             0       11.6921        0.2368             0       20.2947    -0.0166322             0       5.04205             0             0      0.229282   2.62354e-16    0.00312368        102596        103223        252572   4.80682e-16
    0.0125125        288.33       288.663     0.0648114       14.5371      -5.19405             0       11.6532      0.241981             0       19.8889    -0.0959715             0       5.44566             0             0       0.22908   2.65031e-16    0.00400052        102595        103222        252466   4.85586e-16
     0.013013       288.314       288.664     0.0646726       14.4381      -5.45048             0       11.6138      0.247203             0       19.4768     -0.173841             0       5.84918             0             0      0.228859    2.6908e-16    0.00496154        102594        103222        252361   4.93005e-16
    0.0135135        288.29       288.666     0.0640325       14.3051      -5.69589             0       11.5543      0.253939             0       18.8285     -0.196672             0       6.24889             0             0      0.227913   3.24537e-16    0.00907595        102593        103221        252281   5.94613e-16
     0.014014       288.267       288.669     0.0633864       14.1681      -5.93857             0        11.494      0.260771             0       18.1714     -0.216649             0       6.64711             0             0      0.226919     3.828e-16     0.0133958        102592        103221        252202   7.01361e-16
    0.0145145       288.268       288.672     0.0625281       13.8937      -6.08608             0       11.4062      0.270938             0       17.2084     -0.137553             0        6.9935             0             0      0.224285   5.38443e-16     0.0248481        102591        103220        252143   9.86527e-16
     0.015015        288.27       288.675     0.0616764       13.6147      -6.22952             0       11.3176      0.281159             0       16.2381    -0.0564964             0       7.33806             0             0      0.221613   6.95761e-16     0.0364658        102590        103220        252085   1.27476e-15
    0.0155155       288.316       288.678     0.0610385       13.1886      -6.24183             0       11.2023      0.293128             0       15.0346     0.0879664             0       7.62322             0             0      0.217711   9.07254e-16     0.0534318        102588        103219        252051   1.66226e-15
     0.016016       288.362       288.681     0.0604057       12.7617      -6.25232             0       11.0864      0.305013             0       13.8292      0.231593             0       7.90752             0             0      0.213833   1.11689e-15     0.0702907        102587        103219        252017   2.04636e-15
    0.0165165       288.416       288.683      0.059926       12.3119      -6.20803             0       10.9521      0.314356             0       12.5612      0.349922             0       8.16535             0             0      0.210701   1.27048e-15     0.0839093        102586        103219        251968   2.32776e-15
     0.017017        288.47       288.685      0.059455       11.8645      -6.16442             0       10.8174      0.323544             0       11.2962       0.46595             0       8.42227             0             0      0.207602   1.42194e-15     0.0973836        102585        103218        251917   2.60525e-15
    0.0175175       288.518       288.686     0.0592306       11.4852      -6.14058             0       10.6708      0.328362             0       10.1171      0.516612             0       8.65305             0             0      0.205446   1.51271e-15      0.106755        102584        103218        251836   2.77157e-15
     0.018018       288.567       288.688     0.0590164       11.1076      -6.11693             0       10.5238      0.333063             0       8.94512       0.56565             0        8.8813             0             0      0.203306   1.60254e-15       0.11606        102583        103218        251754   2.93616e-15
    0.0185185       288.617       288.689     0.0590763       10.7748       -6.0985             0       10.3678      0.334653             0       7.96435      0.571171             0       9.04167             0             0      0.201576   1.66719e-15      0.123581        102583        103217        251632    3.0546e-15
     0.019019       288.668        288.69     0.0591385       10.4429      -6.07967             0       10.2116      0.336138             0        6.9944      0.575728             0       9.19848             0             0      0.199878   1.73066e-15      0.130964        102582        103217        251509   3.17089e-15
    0.0195195       288.708       288.691     0.0592567       10.1352      -6.05065             0        10.052      0.334974             0        6.2985      0.555899             0       9.26498             0             0       0.19898   1.76445e-15      0.134871        102581        103217        251347   3.23279e-15
      0.02002       288.749       288.693     0.0593522       9.82899      -6.02193             0       9.89262      0.333677             0       5.61516      0.535204             0       9.32808             0             0      0.198101    1.7976e-15      0.138689        102580        103217        251185   3.29354e-15
    0.0205205        288.78       288.695     0.0589036       9.56004      -6.00077             0       9.73705      0.329161             0       5.23345       0.49371             0       9.30929             0             0      0.197712   1.81566e-15      0.140382        102579        103217        251015   3.32662e-15
     0.021021       288.812       288.698     0.0584195       9.29192      -5.97947             0       9.58172      0.324539             0       4.86332      0.451875             0       9.28714             0             0       0.19733   1.83346e-15      0.142043        102579        103217        250844   3.35924e-15
    0.0215215       288.839       288.702     0.0571268       9.04254        -5.955             0       9.43197      0.317464             0       4.75739      0.402271             0        9.1883             0             0      0.197115   1.84546e-15      0.142976        102578        103217        250685   3.38123e-15
     0.022022       288.865       288.705      0.055818       8.79265      -5.92925             0       9.28237      0.310353             0       4.66087      0.353225             0       9.08583             0             0      0.196908   1.85719e-15       0.14388        102577        103217        250526   3.40272e-15
    0.0225225       288.884        288.71     0.0541595       8.53176      -5.87562             0       9.13601      0.302458             0       4.76882      0.316296             0       8.90455             0             0      0.196849   1.86307e-15      0.144137        102577        103218        250367   3.41348e-15
     0.023023       288.903       288.714     0.0525151       8.27075      -5.82077             0        8.9898      0.294556             0        4.8847       0.28026             0       8.71968             0             0      0.196795   1.86878e-15      0.144368        102576        103218        250208   3.42395e-15
    0.0235235       288.915       288.718     0.0511624       8.00713      -5.74063             0       8.84671      0.286535             0       5.16501      0.262731             0       8.46066             0             0      0.196865    1.8712e-15      0.144067        102576        103218        250037   3.42839e-15
     0.024024       288.927       288.722     0.0498399       7.74459      -5.65987             0       8.70396      0.278502             0       5.45259      0.245903             0        8.1984             0             0      0.196944   1.87345e-15      0.143724        102576        103218        249865   3.43252e-15
    0.0245245       288.938       288.726     0.0491166        7.5033      -5.56703             0       8.56792       0.27023             0       5.88459      0.242958             0       7.87165             0             0      0.197217   1.87245e-15      0.142534        102576        103219        249683   3.43068e-15
     0.025025        288.95        288.73     0.0484055       7.26397      -5.47399             0       8.43255      0.261951             0       6.32208      0.240544             0       7.54221             0             0      0.197496   1.87136e-15      0.141323        102575        103220        249499   3.42868e-15
    0.0255255       288.958       288.735     0.0479277       7.06165      -5.37737             0       8.30986      0.253537             0         6.864      0.248194             0       7.16169             0             0      0.197867   1.86865e-15      0.139707        102575        103220        249283   3.42372e-15
     0.026026       288.966       288.739     0.0474302       6.86164      -5.28094             0       8.18816      0.245135             0       7.40756      0.256138             0       6.77955             0             0      0.198245   1.86583e-15      0.138066        102575        103221        249066   3.41854e-15
    0.0265265       288.969       288.745     0.0465762       6.70365      -5.18787             0       8.08451      0.236919             0       7.98113      0.269419             0       6.36809             0             0       0.19873   1.86077e-15      0.135957        102575        103221        248825   3.40927e-15
     0.027027       288.972       288.751     0.0456857       6.54739      -5.09505             0         7.982       0.22872             0       8.55222      0.282786             0        5.9563             0             0      0.199229   1.85539e-15      0.133788        102575        103222        248583   3.39942e-15
    0.0275275       288.973       288.759     0.0441545       6.42145      -5.00671             0       7.89949      0.220822             0       9.07986      0.297642             0       5.53888             0             0      0.199967   1.84448e-15      0.130578        102575        103222        248328   3.37943e-15
     0.028028       288.974       288.766     0.0426427       6.29558      -4.91832             0       7.81819      0.212964             0       9.60097        0.3125             0       5.12227             0             0       0.20072   1.83307e-15      0.127303        102575        103223        248073   3.35853e-15
    0.0285285       288.968       288.775     0.0414592       6.17094      -4.82913             0       7.75736      0.205776             0       10.0122      0.327373             0       4.71937             0             0      0.201729   1.81327e-15      0.122917        102575        103223        247824   3.32224e-15
     0.029029       288.962       288.784     0.0403565       6.04484      -4.73943             0        7.6978      0.198694             0       10.4126      0.341807             0       4.31828             0             0      0.202757   1.79278e-15      0.118448        102575        103224        247578    3.2847e-15
    0.0295295        288.95       288.791     0.0405661       5.89493      -4.64145             0       7.65879      0.193336             0        10.638      0.349112             0       3.94656             0             0      0.204092    1.7611e-15      0.112643        102575        103224        247377   3.22666e-15
      0.03003       288.937       288.798     0.0408046       5.74367      -4.54299             0       7.62095      0.188115             0       10.8508      0.355456             0       3.57752             0             0       0.20545   1.72836e-15      0.106737        102575        103224        247180   3.16667e-15
    0.0305305       288.917       288.801     0.0414961       5.57139      -4.43702             0       7.60139      0.185042             0       10.8655      0.346752             0        3.2503             0             0      0.207168   1.67901e-15     0.0992681        102575        103225        247053   3.07626e-15
     0.031031       288.897       288.804     0.0421507        5.3994      -4.33073             0       7.58268      0.182049             0       10.8705      0.337215             0       2.92636             0             0      0.208901    1.6283e-15     0.0917329        102575        103226        246929   2.98334e-15
    0.0315315       288.868       288.804     0.0422469       5.23173      -4.21974             0        7.5767       0.18028             0       10.7292      0.315065             0       2.65221             0             0      0.210865   1.55685e-15     0.0831974        102575        103226        246870   2.85245e-15
     0.032032        288.84       288.803     0.0422988        5.0661      -4.10842             0       7.57108       0.17851             0       10.5849      0.292675             0       2.38149             0             0      0.212817    1.4845e-15     0.0747085        102575        103226        246817   2.71988e-15
    0.0325325       288.808         288.8     0.0417019       4.93049      -3.99223             0       7.57056      0.176727             0       10.3979      0.266769             0        2.1609             0             0      0.214613   1.39884e-15     0.0669004        102575        103227        246845   2.56293e-15
     0.033033       288.776       288.798     0.0410717       4.79779      -3.87572             0       7.56996      0.174902             0       10.2142      0.241015             0        1.9433             0             0      0.216413   1.31135e-15     0.0590747        102576        103227        246879   2.40264e-15
    0.0335335       288.736       288.793     0.0399715       4.70629      -3.75481             0       7.56826      0.172478             0       10.0758      0.217414             0       1.76809             0             0       0.21827   1.19815e-15     0.0509984        102576        103227        246986   2.19524e-15
     0.034034       288.696       288.789     0.0388423       4.61741      -3.63341             0       7.56635      0.170007             0       9.94229      0.194025             0       1.59513             0             0      0.220133   1.08353e-15     0.0428982        102577        103228        247096   1.98522e-15
    0.0345345       288.649       288.783     0.0373167       4.56446      -3.50544             0       7.56161      0.166893             0       9.87616       0.17356             0       1.45309             0             0      0.222072   9.49275e-16      0.034471        102577        103228        247257   1.73925e-15
     0.035035       288.604       288.776     0.0357839       4.51302      -3.37713             0        7.5568       0.16373             0       9.81283      0.153291             0       1.31268             0             0      0.223977   8.15994e-16     0.0261867        102577        103228        247421   1.49505e-15
    0.0355355       288.567       288.768     0.0341544       4.48163      -3.24428             0       7.55114      0.159912             0        9.7868       0.13564             0       1.19409             0             0      0.225446   6.95616e-16      0.019801        102578        103228        247635    1.2745e-15
     0.036036       288.532        288.76     0.0325549       4.45052      -3.11132             0        7.5456      0.156052             0       9.76093      0.118164             0       1.07678             0             0      0.226868   5.77062e-16     0.0136192        102578        103229        247850   1.05729e-15
    0.0365365       288.513        288.75     0.0313422         4.423      -2.97679             0       7.54161      0.151638             0       9.73705      0.102962             0       0.97599             0             0      0.227685   4.82028e-16     0.0100651        102578        103229        248090   8.83166e-16
     0.037037       288.494       288.741     0.0301898       4.39538      -2.84233             0       7.53779       0.14719             0       9.71223     0.0879202             0      0.876293             0             0      0.228467   3.89245e-16    0.00666567        102579        103229        248331    7.1317e-16
    0.0375375       288.487       288.733     0.0297927       4.36664      -2.70851             0       7.53622      0.142323             0       9.67569     0.0748902             0      0.790312             0             0      0.228803    3.2464e-16    0.00520304        102579        103229        248590   5.94801e-16
     0.038038        288.48       288.725     0.0294498       4.33805      -2.57497             0       7.53479      0.137428             0       9.63849     0.0620264             0      0.705336             0             0      0.229127   2.61851e-16    0.00379512        102579        103229        248850   4.79759e-16
    0.0385385       288.477       288.719     0.0297653       4.31138      -2.44467             0       7.53498      0.132182             0       9.59329      0.051183             0      0.632581             0             0      0.229298   2.21143e-16    0.00305234        102579        103229        249127   4.05176e-16
     0.039039       288.474       288.714      0.030101       4.28501      -2.31467             0       7.53522      0.126909             0       9.54808     0.0405071             0      0.560734             0             0      0.229465   1.81132e-16    0.00232456        102580        103229        249405   3.31867e-16
    0.0395395       288.471        288.71     0.0306763        4.2623      -2.18817             0       7.53622      0.121312             0       9.50268     0.0318101             0      0.499623             0             0      0.229592   1.49347e-16    0.00177425        102580        103229        249692    2.7363e-16
      0.04004       288.469       288.707     0.0312464       4.23985      -2.06197             0       7.53722      0.115689             0       9.45769      0.023286             0      0.439315             0             0      0.229716   1.18061e-16    0.00123453        102580        103229        249980   2.16309e-16
    0.0405405       288.467       288.705     0.0317559       4.22043      -1.93922             0       7.53839      0.109765             0       9.41734      0.016749             0      0.388249             0             0      0.229812   9.25161e-17   0.000816637        102580        103229        250278   1.69506e-16
     0.041041       288.465       288.703     0.0322479       4.20119      -1.81674             0       7.53956      0.103817             0        9.3775     0.0103693             0      0.337891             0             0      0.229903   6.78521e-17   0.000423001        102580        103229        250574   1.24318e-16
    0.0415415       288.465       288.702     0.0325441       4.18402      -1.69742             0       7.54067     0.0975989             0       9.34336    0.00575125             0      0.295464             0             0      0.229931   5.30457e-17   0.000300958        102581        103230        250866   9.71895e-17
     0.042042       288.465       288.701     0.0328282       4.16708      -1.57843             0       7.54176     0.0913588             0       9.30975    0.00128053             0      0.253668             0             0      0.229958   3.87856e-17   0.000184368        102581        103230        251156   7.10624e-17
    0.0425425       288.464         288.7     0.0329795        4.1526      -1.46301             0       7.54272     0.0848777             0       9.28185   -0.00158348             0      0.218754             0             0      0.229971   3.04821e-17    0.00012724        102581        103230        251428   5.58489e-17
     0.043043       288.464         288.7     0.0331234       4.13834      -1.34787             0       7.54367     0.0783774             0       9.25433   -0.00432469             0      0.184405             0             0      0.229983   2.24418e-17   7.30285e-05        102581        103230        251698   4.11175e-17
    0.0435435       288.465         288.7      0.033188       4.12646      -1.23583             0       7.54458     0.0716733             0       9.23075    -0.0057608             0      0.156051             0             0      0.229989   1.71978e-17     4.982e-05        102581        103230        251957   3.15096e-17
     0.044044       288.465         288.7     0.0332484       4.11469      -1.12411             0        7.5454     0.0649522             0       9.20766   -0.00708773             0       0.12821             0             0      0.229994   1.21507e-17   2.78348e-05        102581        103230        252214   2.22623e-17
    0.0445445       288.465         288.7     0.0332646       4.10402      -1.01574             0       7.54519      0.058055             0       9.18954     -0.007283             0      0.105697             0             0      0.229996   9.14288e-18    1.8527e-05        102581        103230        252447   1.67515e-17
     0.045045       288.465         288.7     0.0332818       4.09194     -0.907743             0       7.54424     0.0511457             0        9.1679   -0.00734763             0     0.0836537             0             0      0.229998   6.26432e-18    9.7526e-06        102581        103230        252677   1.14774e-17
    0.0455455       288.466         288.7     0.0333084       4.06556     -0.803388             0       7.53569     0.0441157             0       9.11075   -0.00609137             0     0.0663685             0             0      0.229999   4.69251e-18   6.37188e-06        102581        103230        252870   8.59755e-18