#           y             T         TMean   TPrime2Mean           U_x           U_y           U_z       UMean_x       UMean_y       UMean_z UPrime2Mea... UPrime2Mea... UPrime2Mea... UPrime2Mea... UPrime2Mea... UPrime2Mea...            O2           H2O          C3H8             p         pMean   pPrime2Mean           CO2
  1.11022e-19       287.641        288.03     0.0917652       23.0897  -1.11663e-15             0       22.2833  -3.05236e-16             0       11.1277   1.44463e-16             0   1.12588e-16             0             0      0.229981    6.9858e-19   8.19848e-05        102088        103188        183007   1.27993e-18
  0.000500501       287.641        288.03      0.091809       23.0547    -0.0985309             0       22.2848     0.0139717             0       11.1511     -0.154991             0     0.0312324             0             0      0.229909   1.44081e-18   0.000396728        102088        103188        182940   2.63984e-18
     0.001001       287.641        288.03     0.0918539       23.0195     -0.197097             0       22.2863     0.0279431             0       11.1746     -0.309992             0     0.0625934             0             0      0.229835   2.18904e-18   0.000716961        102088        103188        182872   4.01073e-18
    0.0015015       287.643       288.034     0.0924472       22.9333     -0.313366             0       22.2897      0.041761             0       11.2342     -0.469862             0      0.158108             0             0      0.229131   5.92755e-18    0.00377691        102089        103188        182702   1.08604e-17
     0.002002       287.646       288.038       0.09306       22.8468     -0.429752             0        22.293     0.0555694             0       11.2943     -0.629811             0      0.254054             0             0      0.228417     9.693e-18    0.00688214        102089        103187        182532   1.77594e-17
    0.0025025        287.66       288.052     0.0985353       22.7137     -0.575233             0          22.3     0.0670535             0       11.4556      -0.80931             0      0.457114             0             0       0.22511   2.01654e-17     0.0212609        102089        103187        182329   3.69467e-17
     0.003003       287.674       288.066      0.104092       22.5815      -0.72112             0        22.307     0.0785363             0       11.6176     -0.989125             0      0.661351             0             0      0.221784    3.0662e-17     0.0357208        102088        103187        182126   5.61784e-17
    0.0035035       287.674       288.089      0.123181       22.6049     -0.934097             0         22.33     0.0897913             0       11.8893      -1.22133             0       1.06039             0             0      0.215367   4.51696e-17     0.0636217        102087        103186        181951   8.27592e-17
     0.004004       287.674       288.113      0.142389        22.632      -1.14815             0       22.3532      0.101019             0       12.1619      -1.45442             0       1.46127             0             0      0.208953   5.96386e-17     0.0915083        102086        103185        181776   1.09269e-16
    0.0045045       287.596       288.128      0.176333       23.1301      -1.49512             0       22.4081       0.10891             0       12.5448      -1.79852             0       2.09012             0             0      0.202943   6.93079e-17      0.117637        102084        103184        181697   1.26985e-16
   0.00500501       287.519       288.144      0.210288       23.6308      -1.84399             0       22.4634      0.116866             0       12.9277      -2.14268             0       2.71903             0             0      0.196946   7.89445e-17      0.143711        102082        103183        181619   1.44641e-16
   0.00550551       287.444       288.149      0.245422       24.3974      -2.38031             0       22.5722      0.131317             0       13.3032      -2.49257             0       3.35499             0             0      0.192203   8.53432e-17      0.164333        102082        103182        181580   1.56365e-16
   0.00600601       287.371       288.155      0.280311       25.1576      -2.91797             0       22.6799      0.145787             0       13.6765      -2.84213             0       3.98947             0             0       0.18744   9.17881e-17      0.185046        102081        103180        181540   1.68173e-16
   0.00650651       287.439       288.157      0.295141       25.3956      -3.56666             0       22.6898      0.161717             0       13.8571      -3.16393             0       4.50227             0             0      0.180953   1.02039e-16      0.213246        102081        103179        181429   1.86954e-16
   0.00700701       287.508        288.16      0.309398       25.6148      -4.21032             0       22.6951      0.177698             0       14.0325      -3.48292             0        5.0138             0             0      0.174458   1.12315e-16      0.241485        102081        103178        181316   2.05782e-16
   0.00750751       287.667       288.186      0.283279       24.5167      -4.49993             0       22.3792      0.197256             0        13.838      -3.60373             0       5.43574             0             0      0.167342   1.24382e-16      0.272427        102080        103176        181145   2.27891e-16
   0.00800801       287.824       288.212       0.25692       23.3991      -4.78147             0       22.0548      0.216994             0       13.6341       -3.7195             0        5.8572             0             0      0.160275     1.364e-16       0.30315        102079        103175        180971    2.4991e-16
   0.00850851       287.935       288.252      0.215809       21.0827      -4.56693             0       21.2049      0.247859             0       12.8441       -3.5251             0       6.24938             0             0      0.156302    1.4539e-16      0.320425        102080        103174        180645   2.66381e-16
   0.00900901       288.043       288.291      0.175164       18.7674      -4.35156             0       20.3465      0.278591             0       12.0456      -3.32553             0       6.63579             0             0      0.152386   1.54301e-16      0.337451        102082        103173        180315   2.82708e-16
   0.00950951       288.008       288.289      0.159976       16.5091      -4.09082             0       19.0208      0.302074             0        10.778      -2.84351             0        6.7079             0             0      0.151605   1.58911e-16       0.34085        102087        103173        179686   2.91155e-16
      0.01001        287.97       288.286      0.145377       14.2767      -3.83282             0       17.6949      0.324865             0       9.52206       -2.3635             0       6.77385             0             0      0.150808   1.63445e-16      0.344313        102091        103172        179054   2.99462e-16
    0.0105105       287.791        288.24      0.159675       13.3132      -3.70854             0       16.3633      0.313729             0       8.83904      -1.98159             0       6.53765             0             0      0.149291   1.64225e-16      0.350907        102095        103173        178236   3.00891e-16
     0.011011       287.612       288.194      0.174429       12.3736      -3.58647             0       15.0426      0.301439             0        8.1884      -1.61603             0       6.30864             0             0      0.147771   1.64941e-16      0.357519        102099        103173        177419   3.02202e-16
    0.0115115       287.435       288.132      0.209431        12.498      -3.56288             0       14.2031      0.237835             0        8.9776      -1.97756             0       6.39886             0             0      0.146063   1.62821e-16      0.364945        102101        103173        176664   2.98318e-16
     0.012012        287.26       288.072      0.244531        12.631      -3.54025             0       13.3764      0.174369             0       9.79984      -2.35341             0       6.50186             0             0      0.144523   1.60545e-16       0.37164        102104        103173        175910   2.94148e-16
    0.0125125       287.133       288.037      0.283598       13.1156      -3.55623             0       13.0703      0.116475             0       11.9661      -3.31173             0       7.12466             0             0      0.149814   1.51945e-16      0.348635        102107        103172        175139   2.78392e-16
     0.013013        287.01       288.003      0.322162       13.6205      -3.57463             0       12.7722      0.058562             0       14.1644      -4.27369             0       7.75935             0             0      0.155236   1.43302e-16      0.325062        102109        103171        174367   2.62557e-16
    0.0135135       287.034       288.007      0.341897       14.8835      -3.68374             0       12.7772  -3.33805e-05             0       17.5634      -5.37216             0       8.83947             0             0      0.165564   1.33042e-16      0.280158        102111        103170        173558   2.43758e-16
     0.014014       287.064       288.012      0.360873       16.1677      -3.78995             0       12.7894    -0.0581394             0       20.9694      -6.46647             0       9.93134             0             0      0.175788   1.22951e-16      0.235704        102112        103168        172749    2.2527e-16
    0.0145145       287.301       288.037      0.353529       18.1869      -3.79596             0       13.0504    -0.0992597             0        24.621      -7.41625             0       11.4311             0             0      0.182422   1.18757e-16      0.206862        102113        103166        171975   2.17584e-16
     0.015015       287.536       288.063       0.34594       20.2011      -3.79845             0        13.318     -0.140025             0        28.252      -8.35615             0       12.9406             0             0      0.188978   1.14642e-16      0.178358        102114        103164        171206   2.10045e-16
    0.0155155       287.718       288.094      0.330419       22.0587      -3.68743             0       13.7987     -0.169319             0        31.216      -8.97642             0       14.7641             0             0      0.193018   1.13105e-16       0.16079        102112        103161        170572   2.07229e-16
     0.016016       287.894       288.124      0.314781       23.8887      -3.57358             0       14.2867     -0.197752             0       34.1771      -9.57635             0       16.5916             0             0      0.197135   1.11752e-16      0.142891        102110        103158        169950   2.04751e-16
    0.0165165       287.864       288.147      0.295566       24.8864      -3.37415             0       14.9967     -0.200108             0       37.0525       -9.5612             0       18.5418             0             0      0.203563   1.15991e-16      0.114943        102106        103155        169670   2.12517e-16
     0.017017       287.832        288.17      0.276332       25.8504      -3.16947             0       15.7166      -0.20054             0       39.9454      -9.49969             0       20.4921             0             0      0.209955   1.20728e-16     0.0871542        102101        103151        169410   2.21197e-16
    0.0175175        287.75       288.174      0.256534       25.8554      -2.81562             0       16.7157     -0.146321             0       43.3375      -8.12092             0       22.4447             0             0       0.21531   1.39638e-16     0.0638712        102095        103147        169714   2.55843e-16
     0.018018        287.67       288.178       0.23718       25.8411      -2.46542             0       17.7111    -0.0906013             0       46.7161      -6.70805             0       24.3984             0             0      0.220503   1.60316e-16     0.0412906        102088        103143        170044   2.93729e-16
    0.0185185       287.663       288.161      0.229732       25.3101      -2.21304             0       18.6054    0.00529779             0       49.7331      -4.38234             0       26.3793             0             0      0.221371   2.28326e-16     0.0375164        102079        103139        171095   4.18336e-16
     0.019019       287.656       288.144      0.222434        24.779      -1.96581             0       19.4838     0.0998837             0       52.6898      -2.06539             0       28.3649             0             0      0.222129   2.98642e-16     0.0342223        102071        103134        172174   5.47168e-16
    0.0195195       287.687       288.125       0.21893       24.2448      -1.84896             0       19.9628      0.161226             0       54.1171     0.0295445             0       30.4675             0             0      0.220092   4.27337e-16     0.0430791        102062        103129        173970   7.82961e-16
      0.02002       287.717       288.107      0.215209       23.7228      -1.73543             0       20.4304      0.221386             0       55.4537       2.10328             0       32.5839             0             0      0.218037   5.54994e-16     0.0520149        102054        103124        175793   1.01685e-15
    0.0205205        287.75       288.104      0.206272       23.4923      -1.70157             0       20.6266      0.253178             0       54.6126       3.66828             0       35.0306             0             0      0.215545   6.57745e-16     0.0628463        102046        103119        178242   1.20511e-15
     0.021021       287.781         288.1      0.197167       23.2873      -1.67601             0       20.8134      0.284159             0       53.6887       5.21488             0       37.4871             0             0      0.213117   7.57582e-16     0.0734043        102038        103114        180707   1.38803e-15
    0.0215215       287.787       288.105      0.184222       23.6623      -1.83979             0       20.7837      0.296638             0       50.8749       6.34182             0        40.167             0             0      0.212123   7.90973e-16     0.0777264        102029        103109        183565   1.44921e-15
     0.022022       287.791       288.111      0.171304       24.0477      -2.00546             0       20.7427      0.307911             0       48.0202       7.45523             0        42.851             0             0      0.211173   8.22891e-16     0.0818547        102019        103104        186437   1.50769e-15
    0.0225225       287.781       288.124      0.158978       24.6594      -2.21213             0       20.4541      0.293007             0       44.2786        8.2747             0       45.6232             0             0      0.211193   8.22818e-16     0.0817704        102006        103098        189617   1.50756e-15
     0.023023        287.77       288.138      0.146859       25.2505      -2.41819             0       20.1524      0.276249             0        40.563       9.07826             0       48.4002             0             0      0.211259   8.21067e-16     0.0814816        101992        103092        192813   1.50435e-15
    0.0235235       287.748       288.159       0.13904       25.4126       -2.6117             0       19.5782      0.221052             0       37.3853       9.55205             0       51.2765             0             0      0.212301   7.84518e-16      0.076953        101975        103087        196339   1.43738e-15
     0.024024       287.726       288.181      0.131432       25.5538      -2.80801             0            19       0.16399             0        34.297       10.0209             0        54.158             0             0      0.213392   7.46443e-16     0.0722101        101957        103081        199884   1.36762e-15
    0.0245245       287.699       288.206      0.128001       25.2804      -3.05983             0        18.341      0.069931             0       32.9801       10.3928             0       57.1425             0             0      0.215459    6.7811e-16     0.0632196        101937        103076        203788   1.24242e-15
     0.025025       287.672       288.231      0.124675       24.9898      -3.31573             0       17.6881    -0.0246572             0       31.7095       10.7763             0       60.1302             0             0      0.217505   6.10912e-16     0.0543241        101917        103071        207710    1.1193e-15
    0.0255255       287.661       288.251       0.12332       24.3718      -3.64906             0       17.1525     -0.129303             0       31.3179       11.3815             0       63.1807             0             0      0.219136   5.65286e-16     0.0472365        101895        103065        211967   1.03571e-15
     0.026026       287.652       288.272       0.12193       23.7349      -3.98539             0        16.619     -0.234355             0       30.9046       11.9867             0       66.2257             0             0       0.22071   5.21548e-16     0.0403894        101873        103060        216236   9.55573e-16
    0.0265265        287.66       288.284      0.119898       22.7538       -4.3764             0       16.1245     -0.346837             0       30.0949       12.5916             0       69.1702             0             0      0.221276   5.12242e-16     0.0379285        101851        103053        220725   9.38523e-16
     0.027027       287.668       288.296      0.117807       21.7506       -4.7693             0       15.6242     -0.460197             0       29.2637       13.1828             0       72.1022             0             0      0.221822   5.03451e-16     0.0355575        101829        103047        225215   9.22417e-16
    0.0275275        287.68       288.306      0.114673       20.3612      -5.19532             0       15.0242     -0.588931             0       28.0553       13.5351             0       74.8159             0             0      0.222004   5.03693e-16     0.0347632        101809        103039        229736    9.2286e-16
     0.028028       287.691       288.315      0.111571        18.951       -5.6214             0       14.4182     -0.718578             0       26.8451       13.8756             0        77.506             0             0       0.22218   5.04048e-16     0.0339983        101788        103032        234240    9.2351e-16
    0.0285285       287.701       288.321      0.108992       17.1912      -6.04832             0       13.7092     -0.863622             0       25.6032       14.0174             0       79.7979             0             0      0.222242   5.06302e-16     0.0337285        101770        103025        238439   9.27639e-16
     0.029029        287.71       288.328      0.106516       15.4146      -6.47219             0       12.9944      -1.00931             0       24.3877       14.1522             0       82.0537             0             0      0.222301   5.08544e-16     0.0334757        101753        103018        242588   9.31747e-16
    0.0295295       287.716       288.329      0.105725       13.3644      -6.84629             0       12.1847      -1.16551             0       23.5998       14.1724             0       83.7236             0             0      0.222295   5.10591e-16     0.0335003        101741        103011        245917   9.35498e-16
      0.03003       287.722        288.33      0.104976       11.3037      -7.21297             0       11.3706      -1.32244             0       22.8688       14.1941             0       85.3472             0             0      0.222288   5.12573e-16     0.0335291        101729        103004        249167   9.39129e-16
    0.0305305       287.726       288.329      0.104876       9.07987      -7.46354             0       10.4862      -1.49076             0       23.0285       14.2386             0        86.245             0             0      0.222266   5.13524e-16     0.0336264        101723        102998        251185   9.40872e-16
     0.031031        287.73       288.328      0.104735       6.85702      -7.70471             0       9.59868      -1.65903             0       23.2561        14.293             0       87.0925             0             0      0.222243   5.14391e-16     0.0337259        101719        102991        253116    9.4246e-16
    0.0315315       287.733       288.327      0.103969       4.64947      -7.80379             0        8.6634      -1.82657             0       24.5114       14.4961             0       87.1801             0             0      0.222212   5.13975e-16     0.0338597        101721        102986        253746   9.41698e-16
     0.032032       287.735       288.325      0.103201       2.45602      -7.89365             0       7.72673      -1.99372             0       25.8102       14.7066             0       87.2239             0             0      0.222182   5.13474e-16     0.0339916        101725        102981        254309    9.4078e-16
    0.0325325       287.737       288.323      0.102419      0.468821      -7.84873             0       6.76954      -2.15526             0       27.7449       15.0262             0       86.6266             0             0      0.222158   5.11727e-16     0.0340971        101735        102978        253874   9.37579e-16
     0.033033       287.738       288.321      0.101684      -1.49512       -7.7958             0       5.81274       -2.3161             0       29.6666       15.3391             0       85.9955             0             0      0.222135   5.09785e-16     0.0341946        101746        102974        253409   9.34021e-16
    0.0335335        287.74        288.32      0.101635      -3.13008      -7.62954             0       4.86158      -2.46709             0       31.4055       15.5577             0       84.8859             0             0      0.222138   5.05095e-16     0.0341811        101762        102971        252519   9.25429e-16
     0.034034       287.741       288.318      0.101626      -4.73679      -7.45809             0       3.91131      -2.61734             0       33.0747       15.7491             0       83.7478             0             0      0.222144   5.00248e-16     0.0341571        101778        102969        251632   9.16548e-16
    0.0345345       287.741       288.318      0.102181      -5.95648      -7.21544             0       2.97326      -2.75745             0       33.7898       15.5655             0       82.2192             0             0      0.222183   4.93247e-16      0.033988        101798        102968        250791   9.03721e-16
     0.035035        287.74       288.319      0.102759      -7.15092      -6.97217             0       2.03558      -2.89708             0       34.4146       15.3393             0       80.6621             0             0      0.222225   4.85925e-16      0.033803        101817        102966        249964   8.90305e-16
    0.0355355       287.737        288.32      0.103636      -8.00982       -6.7207             0       1.10288      -3.03046             0       33.8391       14.5463             0       78.7255             0             0      0.222317   4.74326e-16     0.0334056        101837        102966        249323   8.69054e-16
     0.036036       287.733       288.322       0.10455       -8.8528      -6.47253             0      0.169947      -3.16359             0       33.2139       13.7134             0       76.7574             0             0      0.222407   4.62566e-16     0.0330132        101857        102966        248682   8.47508e-16
    0.0365365       287.726       288.324      0.105939      -9.49051      -6.26694             0     -0.765943      -3.29335             0       31.9484       12.3646             0       74.3831             0             0      0.222482   4.48728e-16     0.0326854        101877        102968        248051   8.22154e-16
     0.037037       287.718       288.327        0.1074      -10.1221      -6.06563             0      -1.70192      -3.42209             0       30.7061       11.0042             0       71.9783             0             0      0.222549   4.34917e-16     0.0323962        101896        102969        247399    7.9685e-16
    0.0375375       287.705       288.329      0.109761      -10.6765      -5.91801             0      -2.63894      -3.53809             0       29.7541       9.49856             0         69.19             0             0      0.222504   4.21451e-16     0.0325904        101914        102972        246473   7.72177e-16
     0.038038       287.691        288.33        0.1122      -11.2341      -5.77594             0      -3.57456       -3.6519             0       28.8823       8.02331             0       66.3759             0             0      0.222447   4.08212e-16     0.0328404        101932        102976        245511   7.47921e-16
    0.0385385       287.673       288.331      0.115578      -11.8301      -5.70144             0      -4.49323      -3.73915             0       28.9861       6.91785             0       63.2472             0             0      0.222233   3.97736e-16     0.0337693        101950        102981        244102   7.28727e-16
     0.039039       287.656       288.331      0.119025       -12.434      -5.63274             0      -5.40727      -3.82317             0       29.1928       5.87372             0       60.1029             0             0      0.221989   3.87959e-16     0.0348294        101967        102986        242655   7.10813e-16
    0.0395395       287.638       288.329      0.123273      -13.1328      -5.63249             0      -6.26673      -3.86899             0       30.6161       5.55451             0       56.7736             0             0      0.221388   3.86444e-16     0.0374424        101984        102993        240764   7.08037e-16
      0.04004       287.621       288.327      0.127431      -13.8306      -5.63295             0      -7.11722      -3.91092             0       32.1342       5.30096             0        53.437             0             0      0.220713   3.86306e-16      0.040377        102001        103000        238844   7.07784e-16
    0.0405405       287.615       288.325      0.130556      -14.5182      -5.64138             0      -7.86468      -3.90799             0       34.7421        5.8024             0       50.0172             0             0      0.219188   4.02007e-16     0.0470111        102018        103009        236603   7.36552e-16
     0.041041       287.613       288.323      0.133404      -15.1875      -5.64265             0      -8.59921      -3.90073             0        37.406       6.34922             0       46.5948             0             0      0.217568   4.20183e-16     0.0540533        102036        103018        234355   7.69853e-16
    0.0415415       287.652       288.322      0.133155      -15.6527      -5.56369             0      -9.18907      -3.84482             0       40.6971        7.4041             0        43.143             0             0      0.214897   4.66061e-16     0.0656647        102053        103027        232030   8.53911e-16
     0.042042       287.697       288.322      0.132853      -16.0844      -5.47401             0      -9.76398      -3.78442             0       43.9914       8.47342             0       39.6953             0             0      0.212038   5.16537e-16     0.0780954        102071        103036        229720   9.46391e-16
    0.0425425       287.816       288.323      0.131968      -16.1513      -5.26746             0      -10.1759        -3.675             0       47.3208       9.70021             0       36.2928             0             0      0.207124   6.17143e-16     0.0994609        102088        103045        227585   1.13072e-15
     0.043043       287.935       288.324      0.131214      -16.1838      -5.05155             0      -10.5731      -3.56073             0       50.6396       10.9134             0       32.9054             0             0      0.202241   7.17646e-16      0.120691        102105        103055        225483   1.31486e-15
    0.0435435       288.047       288.322      0.131849      -15.8519      -4.73613             0      -10.8133      -3.39496             0       53.8458       11.9817             0       29.6772             0             0       0.19769   8.17058e-16      0.140478        102120        103063        223729     1.497e-15
     0.044044       288.151       288.321      0.132457       -15.497      -4.41423             0      -11.0395      -3.22498             0       57.0927       13.0283             0       26.4721             0             0      0.193411   9.11768e-16      0.159082        102135        103072        222018   1.67053e-15
    0.0445445       288.174       288.316       0.13279      -14.9048      -4.02519             0      -11.1212       -3.0114             0       60.7615       13.8505             0       23.5068             0             0       0.19195   9.57756e-16      0.165436        102147        103080        220747   1.75479e-15
     0.045045       288.193        288.31      0.133156      -14.3199      -3.63911             0      -11.1903      -2.79476             0       64.5641       14.6445             0       20.5629             0             0      0.190637   1.00224e-15      0.171144        102159        103088        219517   1.83628e-15
    0.0455455       288.164       288.302      0.133858      -13.8093      -3.28282             0      -11.1326      -2.54712             0       69.7187        15.152             0       17.8352             0             0      0.190825    1.0315e-15      0.170327        102169        103095        218695   1.88989e-15