#           y             T         TMean   TPrime2Mean           U_x           U_y           U_z       UMean_x       UMean_y       UMean_z UPrime2Mea... UPrime2Mea... UPrime2Mea... UPrime2Mea... UPrime2Mea... UPrime2Mea...            O2           H2O          C3H8             p         pMean   pPrime2Mean           CO2
  1.11022e-19       287.601       288.241      0.172355       21.9295   2.36088e-17             0       15.2914   9.15431e-18             0       23.6745   7.59977e-18             0   2.33016e-17             0             0      0.227437   6.27515e-17     0.0111441        102133        103274        209003   1.14972e-16
  0.000500501       287.621        288.24      0.178422       21.9192      0.106431             0        15.302     0.0412686             0       23.7109     0.0342606             0      0.105046             0             0      0.226331   7.70915e-17     0.0159523        102133        103274        208971   1.41246e-16
     0.001001       287.642       288.239      0.184507       21.9089      0.212826             0       15.3127     0.0825366             0       23.7475     0.0684967             0       0.21034             0             0      0.225222   9.14658e-17     0.0207755        102133        103274        208939   1.67582e-16
    0.0015015       287.678       288.239      0.199341       21.9239      0.301254             0       15.3363      0.123516             0       23.8641     0.0905633             0      0.439261             0             0      0.222395   1.22973e-16      0.033067        102132        103274        208837   2.25309e-16
     0.002002       287.715        288.24      0.214177       21.9393      0.389616             0       15.3598      0.164494             0       23.9805      0.112609             0      0.668634             0             0      0.219565   1.54479e-16     0.0453684        102132        103273        208735   2.83034e-16
    0.0025025        287.71       288.245      0.229244       22.0342      0.461695             0       15.3659       0.20504             0       24.0287      0.129597             0       1.01055             0             0       0.21617   1.85771e-16     0.0601296        102132        103273        208589   3.40366e-16
     0.003003       287.706       288.251      0.244281       22.1289       0.53399             0       15.3718      0.245585             0        24.075      0.146653             0       1.35295             0             0      0.212774   2.17061e-16     0.0748946        102132        103273        208442   3.97696e-16
    0.0035035       287.676       288.265      0.254118       22.1896      0.641952             0       15.3361      0.286071             0       23.7969      0.175116             0       1.77569             0             0      0.209236   2.48128e-16     0.0902796        102132        103272        208242   4.54617e-16
     0.004004       287.648       288.279      0.263928       22.2475      0.751511             0          15.3      0.326569             0       23.5167      0.203875             0       2.19889             0             0      0.205694   2.79265e-16      0.105678        102132        103272        208041   5.11667e-16
    0.0045045       287.664       288.298      0.270383        21.958       1.05895             0       15.2285      0.368615             0       22.9727      0.269481             0       2.67876             0             0      0.201784   3.19083e-16      0.122679        102132        103271        207787   5.84619e-16
   0.00500501        287.68       288.317      0.276826       21.6649       1.36913             0       15.1568      0.410652             0       22.4292      0.335221             0       3.15912             0             0      0.197873   3.59148e-16      0.139681        102132        103270        207532   6.58026e-16
   0.00550551        287.73       288.332      0.282094       21.0175         1.951             0       15.0696      0.451761             0       21.9467      0.414137             0       3.68787             0             0      0.193955   4.23767e-16      0.156718        102132        103270        207260    7.7642e-16
   0.00600601        287.78       288.348       0.28734       20.3702       2.53395             0       14.9823      0.492815             0       21.4661      0.492056             0       4.21732             0             0      0.190056   4.88439e-16      0.173672        102132        103269        206987   8.94911e-16
   0.00650651       287.809       288.362      0.290858       19.7233       3.20508             0       14.8953      0.529424             0       21.1359      0.487977             0       4.80425             0             0       0.18773   5.57478e-16      0.183784        102130        103269        206685    1.0214e-15
   0.00700701       287.837       288.375      0.294337       19.0782       3.87347             0       14.8084       0.56597             0       20.8069      0.482314             0       5.39235             0             0       0.18543   6.26115e-16      0.193784        102128        103268        206382   1.14716e-15
   0.00750751       287.842       288.384      0.295131       18.5601       4.34933             0       14.7326      0.598026             0       20.5565      0.365164             0       6.06318             0             0      0.184935   6.66426e-16      0.195937        102123        103267        206045   1.22102e-15
   0.00800801       287.847       288.393      0.295872       18.0456       4.82189             0        14.657       0.63011             0        20.307      0.247993             0       6.73608             0             0      0.184453   7.06588e-16      0.198031        102119        103267        205708    1.2946e-15
   0.00850851       287.853       288.395       0.29337       17.7541       5.09169             0       14.5971      0.663825             0       20.1048      0.129538             0       7.53654             0             0      0.184798   7.37634e-16       0.19653        102112        103266        205366   1.35148e-15
   0.00900901       287.858       288.398      0.290798       17.4694       5.35978             0       14.5372      0.697706             0       19.9018     0.0144049             0       8.33892             0             0      0.185149   7.68569e-16      0.195003        102105        103265        205025   1.40816e-15
   0.00950951       287.874       288.398      0.284491       17.5526       5.53491             0       14.4743      0.740673             0       19.6527       0.08048             0       9.24614             0             0      0.185818   7.93425e-16      0.192096        102098        103264        204691    1.4537e-15
      0.01001       287.891       288.398      0.278151       17.6419       5.70728             0       14.4106      0.783897             0       19.4008      0.152277             0       10.1537             0             0      0.186478   8.17892e-16      0.189226        102090        103264        204357   1.49853e-15
    0.0105105       287.914       288.402      0.270222        18.026       5.74453             0       14.3107      0.839704             0       19.0163      0.504435             0         11.08             0             0      0.186714   8.23234e-16      0.188201        102084        103262        204019   1.50832e-15
     0.011011       287.936       288.405      0.262324       18.4156        5.7799             0       14.2094      0.895661             0        18.629      0.861113             0        12.006             0             0       0.18694   8.28293e-16      0.187218        102077        103261        203680   1.51759e-15
    0.0115115       287.954       288.413      0.255782       19.0539       5.73123             0       14.0472      0.958307             0        18.121       1.41868             0       12.9215             0             0      0.186734   8.20763e-16      0.188114        102071        103260        203350   1.50379e-15
     0.012012       287.972       288.421       0.24926       19.6975       5.68324             0        13.883       1.02095             0       17.6106       1.97842             0       13.8359             0             0      0.186526   8.13167e-16      0.189017        102066        103259        203020   1.48987e-15
    0.0125125       287.978       288.431      0.243555        20.553       5.66288             0       13.6403       1.08353             0       17.0043       2.62671             0       14.7024             0             0      0.186253   8.02928e-16      0.190206        102063        103258        202680   1.47111e-15
     0.013013       287.983       288.441      0.237883       21.4085       5.64486             0       13.3955       1.14596             0       16.3959       3.27482             0       15.5653             0             0      0.185987   7.92767e-16      0.191362        102059        103256        202340    1.4525e-15
    0.0135135       287.964       288.452      0.233408       22.2625       5.71439             0       13.0684       1.20291             0       15.7072       3.91577             0       16.2931             0             0      0.186015   7.85495e-16      0.191239        102059        103255        201997   1.43917e-15
     0.014014       287.944       288.463      0.228992       23.1109       5.78602             0       12.7397        1.2594             0       15.0183       4.55177             0       17.0167             0             0      0.186067   7.78307e-16      0.191011        102058        103254        201654     1.426e-15
    0.0145145       287.903       288.471      0.226631       23.7669        5.9305             0       12.3543        1.3003             0       14.3206       5.01561             0       17.5937             0             0      0.186954   7.74034e-16      0.187156        102059        103253        201333   1.41817e-15
     0.015015       287.863       288.479      0.224308       24.4155       6.07601             0       11.9682       1.34049             0       13.6268        5.4712             0       18.1677             0             0      0.187851   7.69865e-16      0.183256        102060        103252        201011   1.41054e-15
    0.0155155       287.832       288.484      0.223226       24.8249       6.25507             0       11.5643       1.35765             0       13.0593        5.6601             0       18.6426             0             0      0.189078   7.69078e-16      0.177921        102062        103251        200708   1.40909e-15
     0.016016       287.802        288.49      0.222135       25.2253       6.43514             0       11.1609       1.37417             0       12.5005       5.84271             0       19.1155             0             0      0.190298   7.68444e-16      0.172616        102065        103250        200405   1.40793e-15
    0.0165165       287.796       288.492      0.220756       25.3504       6.64556             0       10.7742       1.37116             0       12.2054       5.83506             0        19.527             0             0      0.191307   7.72467e-16      0.168232        102067        103250        200135    1.4153e-15
     0.017017       287.791       288.494      0.219298       25.4622       6.85794             0       10.3891       1.36786             0       11.9211       5.82514             0       19.9375             0             0      0.192323   7.76944e-16      0.163814        102070        103249        199865   1.42351e-15
    0.0175175       287.797       288.492      0.215606       25.1959       7.12601             0       10.0455       1.35642             0       11.9426        5.7508             0       20.3203             0             0      0.193564    7.9429e-16      0.158415        102072        103249        199611   1.45529e-15
     0.018018       287.802       288.489       0.21188       24.9138       7.39643             0       9.70367       1.34499             0       11.9736       5.67639             0       20.7042             0             0      0.194817     8.122e-16       0.15297        102074        103248        199358    1.4881e-15
    0.0185185       287.807       288.482      0.207243       24.2048       7.72986             0       9.40892       1.33371             0        12.259       5.60001             0        21.115             0             0      0.196356   8.45236e-16       0.14628        102075        103248        199139   1.54863e-15
     0.019019       287.812       288.475      0.202709       23.4832       8.06503             0       9.11572       1.32245             0       12.5511       5.52342             0       21.5298             0             0      0.197888   8.78195e-16      0.139617        102076        103248        198923   1.60902e-15
    0.0195195       287.813        288.47      0.200777       22.4404       8.44452             0       8.86221       1.31168             0       13.0111        5.4415             0       22.0439             0             0      0.199266   9.09225e-16      0.133627        102075        103248        198753   1.66587e-15
      0.02002       287.814       288.465      0.198879       21.3917       8.82447             0        8.6101       1.30079             0       13.4764       5.35781             0       22.5635             0             0      0.200631   9.39759e-16      0.127693        102074        103247        198584   1.72181e-15
    0.0205205       287.808       288.467      0.197837       20.2009       9.21556             0       8.39187       1.28732             0       14.0671       5.23145             0       23.2138             0             0       0.20169   9.58363e-16      0.123086        102072        103247        198436    1.7559e-15
     0.021021       287.803        288.47      0.196743       19.0097       9.60607             0       8.17489        1.2737             0       14.6622       5.10142             0       23.8687             0             0      0.202738   9.76641e-16      0.118529        102070        103247        198290   1.78939e-15
    0.0215215       287.792        288.48      0.194475       17.8109       9.98343             0       7.98648       1.25669             0       15.3546       4.88788             0       24.6284             0             0      0.203522    9.8746e-16      0.115121        102068        103246        198165   1.80921e-15
     0.022022       287.782       288.491       0.19226       16.6139       10.3598             0       7.79888        1.2395             0       16.0483          4.67             0       25.3906             0             0      0.204292   9.98069e-16      0.111773        102066        103246        198042   1.82865e-15
    0.0225225       287.774       288.505      0.191179       15.4544       10.7146             0       7.62866       1.21833             0       16.7698       4.35788             0       26.2058             0             0      0.204763   1.00412e-15      0.109726        102063        103246        197925   1.83973e-15
     0.023023       287.766       288.518      0.190171       14.2964       11.0678             0        7.4589        1.1968             0       17.4877       4.04171             0       27.0215             0             0      0.205227   1.01005e-15      0.107709        102060        103245        197809    1.8506e-15
    0.0235235       287.756        288.53      0.190644         13.17       11.3892             0       7.29894       1.16793             0       18.1299       3.64166             0       27.8468             0             0       0.20555   1.01356e-15      0.106302        102058        103245        197715   1.85704e-15
     0.024024       287.747       288.541      0.191207       12.0447       11.7086             0       7.13974       1.13851             0       18.7624       3.23846             0       28.6717             0             0      0.205865   1.01702e-15      0.104936        102055        103245        197623   1.86337e-15
    0.0245245       287.736       288.552      0.193557       10.9405       11.9897             0       6.99574       1.09798             0       19.2004       2.77272             0       29.4895             0             0      0.205995   1.01935e-15      0.104369        102053        103244        197568   1.86764e-15
     0.025025       287.726       288.563      0.195922       9.83713       12.2687             0         6.853       1.05689             0       19.6255       2.30454             0       30.3068             0             0      0.206113   1.02166e-15      0.103856        102051        103244        197515   1.87187e-15
    0.0255255       287.716       288.574      0.198565       8.75049       12.5063             0        6.7341       1.00526             0       19.8067       1.78993             0       31.1157             0             0      0.205995   1.02359e-15      0.104369        102050        103244        197491   1.87541e-15
     0.026026       287.707       288.584      0.201044       7.66457        12.742             0       6.61659      0.953246             0       19.9778       1.27271             0       31.9239             0             0      0.205862   1.02553e-15      0.104948        102048        103243        197468   1.87896e-15
    0.0265265       287.698       288.594      0.200545       6.59179       12.9429             0       6.52441      0.894436             0       19.9659      0.708003             0       32.7191             0             0      0.205452   1.02749e-15       0.10673        102048        103243        197463   1.88255e-15
     0.027027       287.689       288.604      0.199861       5.51994        13.142             0       6.43347      0.835433             0       19.9492      0.139783             0       33.5134             0             0      0.205028   1.02942e-15      0.108575        102047        103243        197459   1.88608e-15
    0.0275275       287.684       288.612      0.195944       4.46416       13.3095             0       6.36414      0.773024             0       19.8496     -0.489977             0       34.2911             0             0      0.204353    1.0308e-15       0.11151        102048        103242        197470   1.88861e-15
     0.028028       287.679        288.62      0.191931       3.41034       13.4741             0       6.29591      0.710517             0       19.7478      -1.12308             0       35.0663             0             0      0.203665   1.03211e-15        0.1145        102048        103242        197483   1.89102e-15
    0.0285285       287.677       288.624      0.186285       2.38936       13.5913             0       6.24619      0.646353             0       19.6071      -1.81255             0       35.7995             0             0      0.202769   1.03228e-15      0.118394        102049        103242        197523   1.89132e-15
     0.029029       287.675       288.627      0.180688        1.3716       13.7049             0       6.19754      0.582091             0       19.4613      -2.50272             0       36.5262             0             0      0.201853   1.03232e-15      0.122378        102050        103241        197565    1.8914e-15
    0.0295295       287.675       288.628      0.175877      0.405968         13.76             0       6.16629      0.516238             0       19.2321      -3.20433             0       37.1469             0             0        0.2006   1.03036e-15      0.127825        102052        103241        197658   1.88781e-15
      0.03003       287.675       288.628      0.171164     -0.556212       13.8119             0       6.13575      0.450457             0       18.9938      -3.90295             0        37.755             0             0      0.199323   1.02799e-15      0.133379        102055        103241        197754   1.88347e-15
    0.0305305       287.681       288.627       0.16796      -1.46436       13.8134             0       6.11648      0.385809             0       18.6151      -4.55466             0       38.1664             0             0      0.197662   1.01916e-15        0.1406        102058        103241        197900   1.86729e-15
     0.031031       287.689       288.626      0.164791      -2.36674       13.8098             0       6.09728      0.321641             0       18.2249      -5.19983             0       38.5595             0             0      0.195973   1.00929e-15      0.147943        102061        103241        198049   1.84921e-15
    0.0315315       287.715       288.624      0.162148      -3.18196       13.7283             0       6.07927       0.26475             0       17.6622      -5.74595             0       38.6763             0             0      0.193859   9.83798e-16      0.157133        102065        103241        198241    1.8025e-15
     0.032032       287.742       288.622      0.159491      -3.98656       13.6373             0       6.06134       0.20865             0       17.0921      -6.28488             0       38.7729             0             0      0.191751   9.57802e-16      0.166301        102069        103241        198436   1.75487e-15
    0.0325325       287.781        288.62      0.156629      -4.63594       13.4077             0       6.04457       0.16412             0       16.4126      -6.71879             0       38.5745             0             0      0.189715   9.24468e-16      0.175153        102073        103242        198688    1.6938e-15
     0.033033       287.819       288.617      0.153731      -5.27033       13.1666             0       6.02869      0.120375             0       15.7381      -7.14911             0       38.3588             0             0      0.187731   8.91853e-16      0.183779        102077        103242        198943   1.63404e-15
    0.0335335        287.85       288.615      0.150342      -5.69258       12.7619             0        6.0253     0.0877492             0       15.1344      -7.52863             0       37.8972             0             0      0.186484   8.69399e-16      0.189199        102081        103243        199239    1.5929e-15
     0.034034        287.88       288.613       0.14697      -6.09803       12.3466             0       6.02361     0.0557323             0       14.5486      -7.90919             0       37.4224             0             0      0.185272   8.47568e-16      0.194468        102085        103244        199538    1.5529e-15
    0.0345345       287.909       288.611      0.143847      -6.27303        11.787             0       6.04528      0.032062             0       14.2095      -8.30416             0       36.7663             0             0      0.184533    8.3428e-16      0.197683        102090        103244        199885   1.52856e-15
     0.035035       287.937       288.609      0.140791      -6.43792       11.2243             0       6.06902    0.00887695             0        13.897      -8.70223             0       36.0993             0             0      0.183817   8.21423e-16      0.200794        102095        103245        200233     1.505e-15
    0.0355355       287.962       288.606      0.138624      -6.46842       10.6196             0       6.12038    -0.0078598             0       13.9393      -9.14154             0       35.2865             0             0      0.183419   8.14305e-16      0.202525        102099        103246        200618   1.49196e-15
     0.036036       287.986       288.603      0.136537      -6.49545       10.0202             0       6.17356    -0.0240442             0       14.0148       -9.5819             0       34.4611             0             0      0.183063   8.07737e-16      0.204074        102102        103247        201001   1.47993e-15
    0.0365365       288.004       288.601        0.1355      -6.47781       9.48822             0       6.25012    -0.0331091             0       14.5171      -10.0357             0       33.4714             0             0      0.183248   8.08268e-16      0.203269        102106        103248        201380    1.4809e-15
     0.037037       288.023       288.598      0.134598      -6.44998       8.95608             0        6.3278    -0.0415603             0       15.0592      -10.4888             0       32.4681             0             0       0.18349   8.09355e-16      0.202216        102110        103249        201758   1.48289e-15
    0.0375375       288.053       288.595      0.135397      -6.29468       8.42193             0       6.41961    -0.0423321             0       16.0997      -10.9323             0       31.2936             0             0      0.184446   8.17407e-16       0.19806        102113        103251        202138   1.49764e-15
     0.038038       288.083       288.591      0.136447      -6.12574       7.88205             0       6.51193     -0.042661             0       17.1825      -11.3767             0       30.1109             0             0      0.185466   8.26473e-16      0.193626        102116        103252        202518   1.51425e-15
    0.0385385        288.12       288.585      0.140548      -5.79091       7.27249             0       6.61056    -0.0376058             0       18.7803       -11.832             0       28.8289             0             0      0.187261   8.47854e-16      0.185822        102119        103254        202892   1.55343e-15
     0.039039       288.155       288.578      0.144851      -5.45266        6.6642             0        6.7092    -0.0323381             0       20.4116      -12.2861             0       27.5436             0             0       0.18906   8.69732e-16      0.177998        102122        103255        203266   1.59351e-15
    0.0395395       288.166       288.568      0.151539      -5.07402       6.07089             0       6.80812    -0.0245587             0       22.4398      -12.7276             0       26.2197             0             0      0.190916   8.97474e-16      0.169929        102125        103256        203620   1.64434e-15
      0.04004       288.175       288.557      0.158234      -4.70554       5.48537             0       6.90629    -0.0167246             0       24.4826      -13.1612             0       24.8923             0             0      0.192705    9.2436e-16      0.162152        102127        103258        203975    1.6936e-15
    0.0405405       288.158       288.545      0.164993      -4.45389       4.98947             0       6.99585   -0.00826099             0       26.6932       -13.505             0       23.5237             0             0      0.193719   9.41412e-16      0.157744        102130        103260        204346   1.72484e-15
     0.041041       288.137       288.533       0.17163      -4.22833       4.50803             0       7.08356    7.0027e-05             0       28.8924      -13.8338             0       22.1492             0             0      0.194683   9.58611e-16      0.153551        102132        103261        204718   1.75635e-15
    0.0415415       288.081       288.522      0.176886      -4.29473       4.18858             0       7.15068    0.00691692             0       30.9648      -13.9942             0       20.7085             0             0      0.195094   9.77441e-16      0.151764        102135        103263        205097   1.79085e-15
     0.042042       288.023       288.511      0.181855       -4.3824       3.88142             0       7.21549     0.0134142             0       32.9956      -14.1303             0       19.2604             0             0       0.19548   9.97201e-16      0.150089        102137        103265        205476   1.82706e-15
    0.0425425       287.955       288.503       0.18371      -4.70204       3.70839             0       7.25511     0.0160984             0       34.5726       -14.001             0       17.7321             0             0      0.195585   1.02709e-15      0.149628        102140        103266        205860   1.88183e-15
     0.043043       287.889       288.495      0.185345      -5.01105        3.5315             0       7.29198      0.018273             0       36.0834        -13.84             0       16.1979             0             0      0.195615   1.05932e-15        0.1495        102142        103268        206250   1.94086e-15
    0.0435435       287.855       288.492      0.184648      -5.20693       3.31353             0        7.2996     0.0150311             0        36.891      -13.3421             0       14.6006             0             0      0.194833   1.11629e-15      0.152899        102144        103270        206686   2.04525e-15
     0.044044       287.824       288.488      0.184032      -5.38384       3.08911             0       7.30261     0.0110023             0       37.6404      -12.8123             0       13.0045             0             0      0.193888   1.17869e-15       0.15701        102146        103272        207124   2.15957e-15
    0.0445445       287.827       288.485      0.184255      -5.36422       2.79782             0       7.25782   -0.00118071             0       37.7861      -11.9506             0       11.4199             0             0      0.191243   1.29725e-15      0.168507        102148        103273        207578    2.3768e-15
     0.045045        287.83       288.482      0.184417      -5.35122       2.51136             0       7.20654     -0.013586             0       37.9107      -11.0605             0       9.84417             0             0       0.18859   1.41415e-15      0.180044        102150        103275        208032   2.59099e-15
    0.0455455       287.844       288.477      0.183958      -5.40521       2.27378             0       7.08959    -0.0282382             0       37.8217      -9.88353             0       8.35848             0             0      0.185845   1.51431e-15       0.19198        102151        103276        208489    2.7745e-15