#           y             T         TMean   TPrime2Mean           U_x           U_y           U_z       UMean_x       UMean_y       UMean_z UPrime2Mea... UPrime2Mea... UPrime2Mea... UPrime2Mea... UPrime2Mea... UPrime2Mea...            O2           H2O          C3H8             p         pMean   pPrime2Mean           CO2
            0       287.765       288.391      0.207277       13.3158             0             0       13.3942             0             0       25.9279             0             0             0             0             0      0.209305   4.64174e-16     0.0899782        102386        103270        213030   8.50452e-16
  0.000500501       287.752       288.397      0.208029       13.5873     -0.356725             0       13.4014    0.00350134             0       25.9489    -0.0442612             0     0.0656385             0             0      0.210431   4.42736e-16     0.0850816        102386        103270        213022   8.11175e-16
     0.001001       287.739       288.403      0.208784       13.8594     -0.713362             0       13.4086    0.00700687             0       25.9701    -0.0885125             0      0.131455             0             0      0.211559   4.21278e-16     0.0801801        102386        103270        213014    7.7186e-16
    0.0015015       287.722       288.415      0.211129       14.4285       -1.0262             0       13.4241     0.0125992             0       26.0816     -0.127861             0      0.285877             0             0      0.213252   3.89301e-16     0.0728185        102385        103270        212978   7.13272e-16
     0.002002       287.706       288.428      0.213485       14.9974       -1.3388             0       13.4397     0.0181903             0       26.1938     -0.167313             0      0.440755             0             0      0.214942   3.57381e-16     0.0654701        102384        103270        212942   6.54788e-16
    0.0025025       287.693       288.439      0.218985       15.5196      -1.59044             0       13.4644     0.0234756             0       26.4666     -0.232589             0      0.708821             0             0      0.215879   3.39525e-16     0.0613968        102384        103269        212875   6.22074e-16
     0.003003        287.68        288.45      0.224477       16.0412      -1.84164             0       13.4892     0.0287365             0       26.7405     -0.298324             0      0.977725             0             0      0.216812   3.21728e-16     0.0573392        102384        103269        212808   5.89465e-16
    0.0035035       287.677       288.458      0.228888       16.4566      -2.01867             0       13.5329     0.0299666             0       27.1956     -0.440303             0        1.3855             0             0      0.217144   3.13457e-16     0.0558958        102383        103269        212699   5.74311e-16
     0.004004       287.675       288.465      0.233205       16.8711      -2.19519             0       13.5766     0.0311627             0       27.6514      -0.58303             0       1.79444             0             0      0.217468   3.05316e-16     0.0544881        102383        103268        212590   5.59395e-16
    0.0045045       287.714       288.473      0.225905       17.1884      -2.30915             0       13.6298      0.028139             0       28.1957     -0.818432             0       2.34661             0             0      0.216772   3.13235e-16     0.0575122        102383        103267        212438   5.73904e-16
   0.00500501       287.755       288.481      0.218522       17.5044      -2.42256             0       13.6829     0.0251137             0        28.738      -1.05412             0       2.89977             0             0      0.216062   3.21383e-16     0.0605983        102383        103267        212286   5.88833e-16
   0.00550551        287.84        288.49      0.202963       17.6848      -2.48184             0       13.7142     0.0219321             0       29.0844      -1.31793             0       3.55101             0             0      0.213941   3.52257e-16     0.0698211        102384        103266        212108   6.45401e-16
   0.00600601       287.925       288.499      0.187443       17.8634      -2.54045             0       13.7449     0.0188069             0       29.4236      -1.58066             0       4.20244             0             0      0.211805   3.83389e-16     0.0791103        102385        103265        211931    7.0244e-16
   0.00650651       288.045       288.508       0.17517       17.8946      -2.54414             0       13.7194     0.0203318             0       29.1635      -1.75397             0       4.86937             0             0      0.208409   4.35703e-16     0.0938746        102386        103264        211717    7.9829e-16
   0.00700701       288.164       288.516      0.162973        17.924      -2.54697             0       13.6929     0.0219462             0       28.8925       -1.9252             0       5.53563             0             0      0.205009   4.88105e-16      0.108657        102387        103263        211502     8.943e-16
   0.00750751       288.286       288.525      0.156219       17.8241      -2.48922             0       13.5969     0.0298627             0       27.8541      -1.94965             0       6.15535             0             0      0.201307   5.46669e-16       0.12475        102388        103262        211253    1.0016e-15
   0.00800801       288.408       288.533      0.149521       17.7224      -2.43017             0       13.5002     0.0378317             0        26.808      -1.97279             0       6.77436             0             0      0.197617   6.05087e-16      0.140795        102389        103261        211004   1.10863e-15
   0.00850851       288.498       288.542      0.146312       17.5119       -2.2905             0       13.3542     0.0490257             0       25.2886      -1.91572             0       7.34961             0             0      0.194612   6.54543e-16      0.153859        102390        103260        210737   1.19925e-15
   0.00900901       288.588        288.55      0.143136       17.2998       -2.1489             0       13.2079        0.0602             0       23.7679      -1.85896             0        7.9246             0             0      0.191621   7.03836e-16      0.166866        102391        103260        210470   1.28956e-15
   0.00950951       288.644       288.561      0.141852       16.9994      -1.90119             0       13.0407     0.0703008             0       22.1735       -1.8194             0       8.48602             0             0      0.189343   7.44202e-16      0.176768        102392        103259        210198   1.36352e-15
      0.01001       288.699       288.571      0.140593       16.6979      -1.65162             0       12.8733     0.0803688             0       20.5802      -1.78041             0       9.04703             0             0      0.187078   7.84366e-16      0.186619        102393        103258        209927   1.43711e-15
    0.0105105       288.721       288.582      0.140561       16.3366      -1.31073             0       12.6922     0.0888283             0       19.0358      -1.76886             0        9.5878             0             0      0.185388   8.14663e-16      0.193966        102394        103257        209656   1.49262e-15
     0.011011       288.741       288.593      0.140604       15.9744     -0.968198             0       12.5106     0.0973128             0       17.4909       -1.7566             0       10.1272             0             0      0.183714   8.44639e-16      0.201244        102394        103256        209385   1.54754e-15
    0.0115115       288.726       288.603      0.143979       15.5729     -0.553064             0       12.3067      0.106912             0       15.9263      -1.71239             0       10.6055             0             0      0.182744   8.60351e-16       0.20546        102395        103255        209104   1.57632e-15
     0.012012       288.709       288.613      0.147411       15.1713     -0.137212             0       12.1023       0.11654             0       14.3618      -1.66711             0       11.0819             0             0      0.181782   8.75905e-16      0.209646        102395        103254        208823   1.60482e-15
    0.0125125        288.67       288.621      0.153169       14.7668      0.307839             0       11.8771      0.127338             0       12.8035      -1.57857             0       11.4834             0             0      0.181113    8.8507e-16      0.212551        102395        103253        208544   1.62161e-15
     0.013013        288.63        288.63      0.158871       14.3625      0.752621             0       11.6518      0.138078             0       11.2509      -1.49031             0       11.8833             0             0      0.180446   8.94197e-16       0.21545        102395        103252        208265   1.63834e-15
    0.0135135       288.578       288.636      0.162489        13.963       1.18727             0       11.4244      0.146678             0       9.91053      -1.41269             0       12.2267             0             0      0.179835   9.01958e-16       0.21811        102395        103252        207977   1.65256e-15
     0.014014       288.526       288.643      0.166018       13.5641       1.62138             0       11.1972      0.155217             0       8.58134      -1.33555             0       12.5674             0             0      0.179236   9.09521e-16      0.220713        102394        103251        207690   1.66641e-15
    0.0145145       288.457       288.648      0.166425       13.1837       2.03647             0       10.9778      0.161679             0        7.6417      -1.27516             0       12.8141             0             0      0.179095   9.10226e-16      0.221326        102394        103251        207399    1.6677e-15
     0.015015       288.387       288.654      0.166765        12.805       2.44946             0       10.7583       0.16826             0       6.71512      -1.21397             0       13.0547             0             0      0.178988    9.1047e-16      0.221793        102394        103250        207108   1.66815e-15
    0.0155155       288.282       288.659      0.164961       12.4843       2.79484             0        10.534      0.178701             0       6.21136      -1.12663             0       13.0971             0             0      0.179963   8.95835e-16      0.217551        102393        103250        206827   1.64134e-15
     0.016016       288.177       288.664      0.163148       12.1653        3.1367             0       10.3093      0.189371             0       5.72349      -1.03973             0       13.1319             0             0      0.180972   8.80832e-16      0.213166        102393        103250        206545   1.61385e-15
    0.0165165       288.044       288.668      0.161056       11.8956       3.37181             0       10.0736      0.206944             0       5.71654     -0.966171             0       12.9385             0             0      0.182981   8.54661e-16      0.204432        102392        103250        206267    1.5659e-15
     0.017017       287.912       288.671      0.159003       11.6267       3.60328             0       9.83799      0.224613             0       5.72955     -0.897195             0       12.7404             0             0      0.184987   8.28702e-16      0.195709        102391        103250        205989   1.51834e-15
    0.0175175       287.801       288.674      0.158051       11.3828       3.73123             0        9.6051      0.245008             0       6.30995     -0.958441             0       12.4102             0             0      0.186917    8.0873e-16      0.187319        102390        103250        205705   1.48174e-15
     0.018018       287.692       288.676      0.157164        11.139       3.85699             0       9.37269      0.265357             0       6.90926      -1.02609             0       12.0785             0             0      0.188814   7.89326e-16      0.179068        102389        103250        205421   1.44619e-15
    0.0185185       287.632       288.678      0.158032        10.896        3.9238             0       9.15321      0.284493             0       8.01495      -1.26518             0       11.7068             0             0      0.189857   7.85127e-16      0.174535        102388        103250        205142    1.4385e-15
     0.019019       287.573       288.679      0.158978       10.6526       3.99002             0       8.93421      0.303604             0       9.13195      -1.50801             0       11.3345             0             0      0.190872   7.81322e-16      0.170123        102387        103250        204865   1.43153e-15
    0.0195195        287.55        288.68      0.161872       10.3963       4.04118             0       8.72718      0.322107             0       10.5352       -1.8458             0       10.9473             0             0      0.191184   7.87483e-16      0.168765        102385        103251        204610   1.44282e-15
      0.02002       287.529       288.682       0.16485       10.1423       4.09112             0       8.52036      0.340682             0       11.9403      -2.18185             0       10.5596             0             0      0.191485   7.93671e-16      0.167458        102384        103251        204356   1.45415e-15
    0.0205205       287.526       288.684      0.169858       9.94229       4.11213             0       8.31882      0.360999             0       13.3915      -2.47646             0       10.1613             0             0      0.191509   8.00504e-16      0.167353        102382        103251        204116   1.46667e-15
     0.021021       287.524       288.686      0.174989       9.74828       4.13012             0       8.11766      0.381577             0        14.833      -2.76511             0       9.76192             0             0      0.191535   8.07285e-16      0.167237        102381        103251        203877    1.4791e-15
    0.0215215       287.533       288.689       0.18292       9.69027       4.07927             0       7.92546      0.408092             0       16.0516      -2.91758             0       9.33869             0             0      0.191614   8.12871e-16      0.166894        102380        103252        203667   1.48933e-15
     0.022022       287.542       288.692      0.191004       9.63722       4.02623             0       7.73441      0.434576             0       17.2484      -3.05948             0       8.91579             0             0      0.191702   8.18449e-16      0.166513        102379        103252        203460   1.49955e-15
    0.0225225       287.556       288.697      0.202414       9.69224        3.9254             0       7.56836      0.460381             0       17.9702      -2.97191             0       8.50012             0             0      0.191981    8.2386e-16      0.165301        102378        103252        203299   1.50947e-15
     0.023023       287.569       288.702      0.213812       9.74758       3.82505             0       7.40335      0.486401             0       18.6766      -2.87774             0       8.08747             0             0      0.192272   8.29161e-16      0.164036        102377        103252        203140   1.51918e-15
    0.0235235       287.577       288.706      0.224944       9.80974       3.73477             0       7.25961      0.516887             0       19.0643      -2.64683             0       7.73722             0             0      0.192821   8.32175e-16      0.161647        102376        103253        203041    1.5247e-15
     0.024024       287.585        288.71      0.235935       9.87182       3.64637             0       7.11656       0.54766             0       19.4455      -2.41183             0       7.39038             0             0      0.193383   8.35117e-16      0.159203        102375        103253        202946   1.53009e-15
    0.0245245       287.583       288.713      0.244124       9.93212       3.59534             0       6.98694      0.584136             0       19.6967      -2.09563             0       7.11108             0             0      0.194195   8.36634e-16      0.155673        102374        103253        202921   1.53287e-15
     0.025025        287.58       288.717      0.252224       9.99485       3.54706             0       6.85769      0.620686             0       19.9487      -1.77545             0       6.83496             0             0      0.195009   8.38273e-16      0.152135        102373        103252        202900   1.53587e-15
    0.0255255       287.571       288.724      0.258646       10.1035       3.55115             0       6.73561       0.65865             0       20.2158      -1.37983             0       6.61917             0             0      0.195859   8.42219e-16      0.148438        102373        103252        202962    1.5431e-15
     0.026026       287.561        288.73      0.264907       10.2111       3.55876             0       6.61339      0.697141             0        20.502     -0.991854             0       6.40915             0             0      0.196709    8.4692e-16      0.144743        102372        103252        203030   1.55172e-15
    0.0265265       287.545       288.738      0.268221       10.2997       3.63059             0       6.48866      0.745234             0       21.1349     -0.743372             0        6.3042             0             0      0.197544   8.65399e-16      0.141112        102371        103252        203195   1.58557e-15
     0.027027       287.529       288.745      0.271238        10.381       3.70626             0       6.36461      0.793491             0       21.7811     -0.506417             0       6.20775             0             0      0.198366   8.84428e-16      0.137538        102371        103252        203366   1.62044e-15
    0.0275275       287.515       288.747      0.269037       10.3349       3.84904             0        6.2524      0.844614             0       22.6593     -0.471401             0        6.2601             0             0      0.198955   9.13094e-16      0.134979        102370        103251        203635   1.67296e-15
     0.028028       287.502        288.75      0.266511       10.2805       3.99561             0       6.14262      0.895189             0       23.5158     -0.441034             0       6.31958             0             0      0.199518   9.41569e-16      0.132528        102370        103251        203910   1.72513e-15
    0.0285285       287.499       288.746      0.258499       10.0838       4.20607             0       6.07394      0.936521             0       24.0083     -0.489033             0       6.49923             0             0      0.199658   9.66833e-16       0.13192        102369        103250        204279   1.77142e-15
     0.029029       287.496       288.742      0.250348       9.88179       4.41957             0       6.00888      0.976792             0       24.4483     -0.533468             0       6.68326             0             0      0.199782   9.91918e-16      0.131381        102368        103250        204654   1.81738e-15
    0.0295295         287.5       288.735       0.23996       9.59473        4.6825             0       6.00259      0.999844             0       24.0374      -0.52001             0        6.9384             0             0      0.199652   1.01407e-15       0.13195        102367        103249        205124   1.85797e-15
      0.03003       287.504       288.727       0.22959       9.30527       4.94743             0        5.9998       1.02178             0       23.5727     -0.500476             0       7.19516             0             0      0.199502   1.03646e-15        0.1326        102366        103248        205599   1.89898e-15
    0.0305305       287.519       288.721      0.219504       8.97817       5.24363             0         6.052       1.02623             0        22.265      -0.38575             0       7.47731             0             0      0.199061   1.06244e-15      0.134519        102364        103247        206140   1.94658e-15
     0.031031       287.534       288.714      0.209411       8.64972       5.54056             0       6.10669       1.02982             0       20.9292     -0.268406             0       7.75951             0             0      0.198602   1.08875e-15      0.136514        102363        103246        206685   1.99479e-15
    0.0315315       287.557        288.71      0.199224       8.30091       5.84861             0       6.19899       1.02052             0       19.1678     -0.111442             0       8.04247             0             0      0.197877   1.12009e-15      0.139666        102361        103246        207272   2.05221e-15
     0.032032        287.58       288.706      0.189033        7.9509       6.15552             0       6.29262       1.01074             0       17.4085     0.0426548             0       8.32472             0             0      0.197158   1.15095e-15      0.142793        102360        103245        207861   2.10876e-15
    0.0325325         287.6       288.703      0.178768       7.58327       6.44575             0       6.40559      0.993885             0       15.6806      0.154819             0        8.5968             0             0      0.196527   1.17489e-15      0.145536        102358        103244        208462   2.15262e-15
     0.033033       287.619       288.701       0.16857       7.21435       6.73312             0       6.51908      0.976849             0       13.9721      0.261004             0       8.86761             0             0      0.195915   1.19803e-15      0.148196        102357        103244        209060   2.19502e-15
    0.0335335       287.632       288.699      0.159313       6.82709       6.98009             0       6.63995      0.957183             0       12.5386      0.282577             0       9.12051             0             0      0.195576   1.20988e-15       0.14967        102355        103243        209625   2.21672e-15
     0.034034       287.644       288.698      0.150168       6.43858        7.2229             0       6.76103       0.93736             0       11.1272      0.298058             0       9.37122             0             0      0.195247   1.22135e-15      0.151099        102354        103243        210187   2.23774e-15
    0.0345345       287.653       288.698      0.142553        6.0327       7.40879             0       6.88506      0.915392             0       10.0181      0.230036             0       9.59205             0             0      0.195062   1.22782e-15      0.151904        102353        103243        210720   2.24959e-15
     0.035035       287.662       288.697      0.135037       5.62578        7.5895             0       7.00982      0.893358             0       8.92365      0.156092             0       9.80908             0             0      0.194882   1.23413e-15      0.152687        102352        103242        211249   2.26116e-15
    0.0355355       287.669       288.697      0.128824       5.20484        7.7015             0       7.14428      0.870452             0       8.02499    0.00345864             0       9.97543             0             0      0.194767    1.2384e-15      0.153186        102352        103242        211737   2.26898e-15
     0.036036       287.677       288.697      0.122677       4.78249       7.80774             0       7.27982      0.847615             0       7.14152     -0.154026             0       10.1341             0             0      0.194659   1.24245e-15      0.153657        102352        103243        212219   2.27641e-15
    0.0365365       287.683       288.697       0.11738       4.34204        7.8397             0        7.4292      0.825668             0       6.45384     -0.374035             0        10.194             0             0      0.194633   1.24379e-15      0.153769        102352        103243        212618   2.27885e-15
     0.037037       287.689       288.698      0.112123       3.90041       7.86565             0       7.57876      0.803643             0       5.79315     -0.595959             0       10.2426             0             0      0.194606   1.24514e-15      0.153888        102352        103243        213013   2.28133e-15
    0.0375375       287.696       288.699      0.107374       3.44403       7.81648             0       7.73043      0.780644             0       5.47006     -0.841842             0       10.1511             0             0      0.194558   1.24669e-15      0.154096        102353        103243        213337   2.28417e-15
     0.038038       287.705         288.7      0.102656       2.98806       7.76123             0       7.88143      0.757607             0       5.17928      -1.08653             0       10.0477             0             0      0.194501   1.24852e-15      0.154341        102354        103244        213655   2.28752e-15
    0.0385385       287.725       288.701     0.0983188       2.53703       7.63205             0       8.02422        0.7341             0       5.28146      -1.31671             0       9.80198             0             0      0.194342   1.25379e-15      0.155036        102355        103244        213907   2.29719e-15
     0.039039       287.745       288.703     0.0940131       2.08854       7.49652             0       8.16594      0.710604             0       5.41588      -1.54258             0       9.54458             0             0      0.194183   1.25913e-15      0.155725        102357        103245        214152   2.30697e-15
    0.0395395       287.777       288.705     0.0900838       1.67009       7.28592             0       8.29498      0.687238             0       5.93141      -1.71753             0       9.14971             0             0      0.194043   1.26524e-15      0.156334        102359        103246        214320   2.31816e-15
      0.04004       287.808       288.706      0.086193       1.25683       7.06883             0       8.42254      0.663899             0       6.47714      -1.88493             0       8.74532             0             0      0.193916   1.27101e-15      0.156889        102361        103247        214485   2.32872e-15
    0.0405405       287.831       288.706      0.082744       0.90326       6.77718             0        8.5331      0.640874             0       7.37015      -1.96548             0       8.23153             0             0      0.193933   1.27279e-15      0.156813        102363        103248        214607     2.332e-15
     0.041041       287.852       288.706     0.0793137      0.555475       6.48138             0       8.64132      0.617881             0       8.28126      -2.03747             0       7.71146             0             0      0.193967   1.27414e-15      0.156663        102366        103250        214725   2.33445e-15
    0.0415415       287.859       288.703     0.0760914      0.272427       6.13932             0       8.72322      0.595247             0       9.39498      -2.01371             0       7.12107             0             0      0.194191   1.27051e-15      0.155693        102368        103251        214817   2.32782e-15
     0.042042       287.866         288.7     0.0728921   -0.00548992       5.79859             0       8.80154      0.572399             0       10.5038      -1.98349             0       6.52837             0             0      0.194412   1.26692e-15      0.154729        102370        103253        214906   2.32123e-15
    0.0425425       287.867       288.696     0.0699436     -0.227458       5.47252             0       8.84072      0.547215             0       11.5592      -1.88276             0       5.91051             0             0      0.194616   1.26361e-15      0.153842        102373        103254        214966   2.31517e-15
     0.043043       287.869       288.691     0.0670599     -0.440854       5.14798             0       8.87632      0.521685             0       12.5917      -1.77908             0       5.29502             0             0      0.194792   1.26104e-15      0.153079        102375        103255        215027   2.31046e-15
    0.0435435       287.872       288.687      0.064864     -0.563151       4.83965             0        8.8738      0.492473             0       13.3804      -1.64411             0       4.70463             0             0      0.194662   1.26631e-15      0.153645        102377        103257        215106   2.32012e-15
     0.044044       287.875       288.682     0.0627256     -0.685988       4.52962             0       8.86873      0.462747             0       14.1429       -1.5113             0       4.11835             0             0       0.19446   1.27325e-15      0.154522        102380        103258        215187   2.33283e-15
    0.0445445       287.885       288.678     0.0611821     -0.814416       4.20194             0       8.83727       0.42768             0        14.634        -1.401             0       3.57483             0             0      0.193515   1.29742e-15      0.158629        102382        103259        215299   2.37712e-15
     0.045045       287.897       288.674     0.0596825      -0.96024       3.87335             0       8.80345      0.391896             0       15.1049      -1.29403             0       3.03513             0             0      0.192453   1.32382e-15      0.163246        102384        103260        215408   2.42549e-15
    0.0455455       287.928       288.671      0.058627      -1.28194       3.53559             0       8.74568      0.348867             0       15.3715      -1.22088             0       2.53423             0             0      0.190207   1.37277e-15      0.173015        102387        103261        215506   2.51518e-15