#           y             T         TMean   TPrime2Mean           U_x           U_y           U_z       UMean_x       UMean_y       UMean_z UPrime2Mea... UPrime2Mea... UPrime2Mea... UPrime2Mea... UPrime2Mea... UPrime2Mea...            O2           H2O          C3H8             p         pMean   pPrime2Mean           CO2
  1.11022e-19       287.693       288.109       0.12711       21.2112  -2.70318e-17             0       19.6325  -2.07783e-16             0        24.216  -6.31815e-17             0   4.55835e-16             0             0      0.229963   3.75077e-18   0.000160117        102113        103219        207670   6.87211e-18
  0.000500501       287.694       288.111      0.128972       21.2058     0.0849631             0        19.635     0.0587308             0       24.2671    -0.0368361             0     0.0538956             0             0      0.229913   5.43366e-18    0.00037991        102113        103219        207616   9.95547e-18
     0.001001       287.695       288.113      0.130844       21.2003      0.169915             0       19.6377      0.117462             0       24.3183    -0.0736577             0      0.107949             0             0      0.229862   7.12574e-18   0.000602159        102114        103219        207561   1.30557e-17
    0.0015015       287.701        288.12      0.137457       21.1926      0.249307             0       19.6466      0.176186             0       24.4655     -0.103233             0      0.240827             0             0      0.229529   1.34066e-17    0.00204954        102114        103219        207390   2.45633e-17
     0.002002       287.707       288.126      0.144076       21.1849        0.3287             0       19.6555      0.234909             0       24.6134     -0.132809             0       0.37413             0             0      0.229192   1.97189e-17    0.00351443        102115        103219        207217   3.61288e-17
    0.0025025       287.733       288.139      0.152402       21.1615      0.408503             0       19.6701      0.293574             0       24.9485     -0.162709             0      0.612975             0             0      0.227852    3.3887e-17    0.00934054        102116        103219        206963   6.20874e-17
     0.003003       287.759       288.151      0.160706       21.1382      0.488228             0       19.6848      0.352239             0       25.2845     -0.192527             0      0.852531             0             0      0.226498   4.81146e-17     0.0152259        102117        103218        206708   8.81549e-17
    0.0035035       287.836       288.169      0.165574       21.1113      0.554886             0        19.712      0.410979             0       25.7854     -0.208634             0       1.20981             0             0      0.222888   7.21992e-17     0.0309227        102118        103218        206426   1.32282e-16
     0.004004       287.912       288.188      0.170404       21.0848      0.621226             0       19.7391      0.469734             0        26.285     -0.224568             0       1.56806             0             0      0.219268   9.62814e-17     0.0466599        102119        103217        206143   1.76405e-16
    0.0045045       288.001         288.2      0.170487       21.1146      0.648211             0       19.7581      0.530426             0       26.6278     -0.219052             0       2.04786             0             0      0.214501   1.20053e-16     0.0673869        102120        103217        205827   2.19959e-16
   0.00500501       288.088       288.213      0.170538       21.1455      0.674919             0       19.7766      0.591139             0       26.9658     -0.212918             0       2.52853             0             0      0.209747   1.43712e-16     0.0880565        102121        103216        205511   2.63307e-16
   0.00550551       288.112       288.218      0.167433       21.2854       0.67434             0       19.7543      0.653931             0        26.829     -0.145531             0       3.09518             0             0      0.206303   1.56248e-16      0.103029        102121        103215        205153   2.86276e-16
   0.00600601       288.135       288.223      0.164335       21.4268      0.676053             0        19.731      0.716789             0       26.6859    -0.0762474             0       3.66172             0             0      0.202873   1.68707e-16      0.117946        102122        103214        204794   3.09104e-16
   0.00650651       288.116       288.228      0.161725       21.6826      0.866594             0       19.6244      0.785163             0       26.0184      0.149227             0        4.2207             0             0      0.200496   1.74843e-16      0.128277        102123        103213        204417   3.20345e-16
   0.00700701       288.097       288.233      0.159139       21.9413        1.0602             0       19.5159      0.853642             0       25.3481      0.378735             0       4.77889             0             0      0.198108   1.80998e-16      0.138661        102124        103213        204038   3.31623e-16
   0.00750751       288.112       288.245      0.158177       22.3963       1.46969             0       19.2786      0.929457             0       24.4768      0.892302             0       5.28194             0             0      0.194874   1.88572e-16      0.152721        102124        103212        203575   3.45499e-16
   0.00800801       288.127       288.257      0.157283       22.8427       1.88091             0       19.0391       1.00526             0       23.6077       1.40781             0       5.78459             0             0      0.191622   1.96222e-16      0.166863        102125        103212        203111   3.59515e-16
   0.00850851       288.187       288.277      0.160531       22.7546       2.39783             0       18.6633       1.08037             0       22.8822       2.04287             0       6.26221             0             0      0.187212   2.08584e-16      0.186037        102124        103211        202558   3.82165e-16
   0.00900901       288.246       288.297       0.16385       22.6455       2.91375             0       18.2859       1.15497             0        22.165       2.67015             0       6.74179             0             0       0.18283   2.20913e-16      0.205089        102124        103210        202006   4.04754e-16
   0.00950951       288.246       288.313      0.171052       21.3969       3.37465             0       17.8213       1.20164             0       21.9012        2.8734             0       7.32819             0             0      0.179977   2.31419e-16       0.21749        102123        103209        201491   4.24003e-16
      0.01001       288.245        288.33      0.178219       20.1455       3.83033             0       17.3568       1.24766             0       21.6621       3.06535             0       7.91905             0             0      0.177163   2.41845e-16      0.229727        102122        103208        200979   4.43106e-16
    0.0105105       288.186       288.334      0.183689       18.7555       4.02969             0       16.8991        1.2617             0       22.6336       2.70352             0       8.72803             0             0      0.176201   2.48335e-16      0.233911        102121        103207        200588   4.54996e-16
     0.011011       288.128       288.338      0.189122        17.373       4.22364             0       16.4416       1.27546             0       23.6473       2.33855             0       9.53978             0             0      0.175231   2.54948e-16      0.238126        102121        103206        200204   4.67112e-16
    0.0115115       288.112       288.326      0.192926       16.3259       4.17702             0       15.9967       1.27623             0       26.5378        1.8334             0       10.4748             0             0      0.173935   2.67051e-16      0.243759        102120        103204        200083   4.89288e-16
     0.012012       288.097       288.314      0.196878       15.2764       4.12993             0       15.5514       1.27704             0       29.4664       1.33057             0       11.4108             0             0      0.172641   2.79213e-16      0.249387        102120        103203        199972   5.11571e-16
    0.0125125       288.087       288.296      0.206854       14.1276       4.06324             0       15.0852       1.27954             0       33.9421      0.922179             0        12.384             0             0      0.171402   2.93754e-16      0.254774        102120        103201        200210   5.38213e-16
     0.013013       288.077       288.278      0.217065       12.9724       3.99918             0       14.6205       1.28155             0       38.4212      0.511016             0       13.3631             0             0      0.170163   3.08409e-16      0.260159        102120        103199        200458   5.65063e-16
    0.0135135       288.057       288.268      0.236089       11.5794       4.03318             0       14.2148       1.26484             0       43.0281   -0.00384004             0       14.5628             0             0      0.168941   3.27326e-16      0.265473        102120        103197        201044   5.99723e-16
     0.014014       288.037       288.259      0.255156       10.1814         4.071             0       13.8119        1.2475             0       47.6024     -0.523182             0       15.7719             0             0      0.167722   3.46351e-16      0.270776        102119        103195        201638   6.34579e-16
    0.0145145        288.05       288.258       0.27578       8.61341       4.24086             0       13.5053       1.20803             0       51.0468      -1.19826             0        17.306             0             0      0.166595   3.69102e-16      0.275672        102120        103193        202538   6.76263e-16
     0.015015       288.064       288.258       0.29629       7.04656       4.41871             0       13.1995       1.16845             0       54.4472      -1.87128             0       18.8426             0             0      0.165501   3.91703e-16      0.280431        102121        103190        203446   7.17673e-16
    0.0155155       288.092       288.261      0.313173       5.51809       4.85468             0       12.9238       1.12551             0       56.4231      -2.47778             0       20.4584             0             0      0.165425   4.09485e-16      0.280762        102124        103188        204657   7.50253e-16
     0.016016        288.12       288.264      0.329929       4.00637       5.28882             0       12.6485       1.08295             0       58.3589      -3.07821             0       22.0723             0             0      0.165381   4.27282e-16      0.280951        102126        103185        205876    7.8286e-16
    0.0165165        288.14       288.271      0.342844       3.00131       5.66727             0       12.3899       1.05182             0       59.0856      -3.49512             0       23.6294             0             0      0.166331   4.45529e-16       0.27682        102129        103183        207358   8.16292e-16
     0.017017        288.16       288.278      0.355629       2.02526       6.03174             0       12.1322       1.02128             0       59.7877      -3.90868             0       25.1864             0             0      0.167292   4.63826e-16      0.272644        102132        103181        208845   8.49815e-16
    0.0175175        288.17       288.288      0.364708       1.87342       5.99857             0       11.8998       1.00762             0       59.7935      -4.22696             0       26.7403             0             0      0.168546   4.83537e-16      0.267191        102135        103179        210479    8.8593e-16
     0.018018        288.18       288.298      0.373635        1.7459       5.94933             0       11.6675      0.994785             0       59.7798      -4.54586             0       28.2962             0             0      0.169767   5.03053e-16       0.26188        102138        103177        212115   9.21687e-16
    0.0185185       288.187        288.31        0.3785       2.26977       5.46947             0       11.4353        1.0041             0       59.2446      -4.88129             0        29.906             0             0       0.17011   5.17332e-16      0.260392        102141        103175        213802   9.47849e-16
     0.019019       288.194       288.321      0.383205       2.80613       4.97775             0       11.2021       1.01448             0       58.6793      -5.21722             0       31.5164             0             0      0.170406   5.31458e-16      0.259105        102143        103173        215487    9.7373e-16
    0.0195195       288.206       288.332      0.383836       3.65899       4.18595             0        10.943       1.05189             0       57.3511        -5.566             0       33.1388             0             0      0.169529   5.41706e-16      0.262919        102145        103171        217132   9.92506e-16
      0.02002       288.218       288.343      0.384312       4.51315       3.38922             0       10.6828       1.09072             0       55.9948      -5.91204             0       34.7592             0             0       0.16862   5.52028e-16       0.26687        102147        103169        218774   1.01142e-15
    0.0205205       288.235       288.351      0.381048       5.39853        2.4741             0       10.3974       1.16358             0       53.9656      -6.19236             0       36.3284             0             0      0.166954   5.64142e-16      0.274113        102151        103167        220336   1.03361e-15
     0.021021       288.252        288.36      0.377799       6.27721       1.55928             0       10.1121       1.23796             0       51.9295      -6.46473             0       37.8949             0             0      0.165285   5.76199e-16      0.281368        102154        103166        221891    1.0557e-15
    0.0215215       288.267       288.369      0.374884       7.00332      0.651277             0       9.82898        1.3473             0       49.7361      -6.55577             0       39.3963             0             0      0.163556   5.86948e-16      0.288888        102158        103164        223305    1.0754e-15
     0.022022       288.282       288.378      0.372149        7.7198     -0.254244             0       9.54742       1.45813             0       47.5492      -6.63541             0       40.8941             0             0      0.161854   5.97372e-16      0.296288        102162        103163        224711    1.0945e-15
    0.0225225        288.29       288.385      0.373328       8.22688      -1.10587             0       9.29984       1.60162             0       45.5019      -6.46749             0       42.3148             0             0      0.160748   6.00748e-16      0.301095        102165        103162        225933   1.10068e-15
     0.023023       288.297       288.393      0.374556       8.72605      -1.95595             0       9.05447       1.74633             0       43.4515      -6.28758             0       43.7335             0             0      0.159735   6.03671e-16      0.305501        102168        103160        227145   1.10604e-15
    0.0235235       288.274       288.397      0.376783       9.06116      -2.77424             0       8.85484       1.91671             0       41.3362      -5.85919             0       45.1103             0             0      0.160637   5.97206e-16       0.30158        102171        103159        228146   1.09419e-15
     0.024024       288.249       288.401      0.378849       9.38963      -3.58933             0       8.65693       2.08827             0       39.2096      -5.41547             0       46.4855             0             0      0.161685    5.9041e-16      0.297023        102174        103159        229135   1.08174e-15
    0.0245245       288.174       288.401      0.377708        9.5864      -4.34093             0       8.49327       2.28346             0       36.8597      -4.66755             0       47.8296             0             0      0.165634   5.77069e-16      0.279854        102178        103158        229881    1.0573e-15
     0.025025       288.098       288.401       0.37641       9.77343      -5.08299             0       8.33083       2.47993             0       34.5124      -3.89878             0       49.1724             0             0      0.169643   5.64073e-16       0.26242        102181        103157        230608   1.03349e-15
    0.0255255       288.002       288.399      0.372108       9.77537      -5.64374             0       8.19169       2.70073             0       32.2143      -2.73388             0       50.4889             0             0      0.174811   5.57639e-16      0.239954        102184        103157        230978    1.0217e-15
     0.026026       287.906       288.396      0.367782        9.7644       -6.1889             0       8.05368       2.92272             0       29.9476      -1.54589             0       51.8065             0             0      0.179939   5.52023e-16      0.217656        102186        103156        231323   1.01141e-15
    0.0265265        287.82       288.392      0.363014       9.51802      -6.44971             0       7.93628       3.16658             0       28.2525      0.063079             0       53.1438             0             0      0.184359   5.61328e-16      0.198441        102188        103156        231226   1.02846e-15
     0.027027       287.736       288.387      0.358249       9.26103      -6.69427             0       7.81944       3.41119             0       26.6104       1.69316             0       54.4823             0             0       0.18869   5.71549e-16      0.179607        102189        103155        231104   1.04719e-15
    0.0275275       287.677        288.38      0.353551         8.818       -6.6541             0       7.71267       3.66892             0        25.898       3.69311             0       55.8432             0             0      0.191485   5.97823e-16      0.167455        102190        103156        230539   1.09532e-15
     0.028028        287.62       288.373      0.348785       8.37027      -6.60248             0       7.60559       3.92677             0       25.2383       5.70556             0       57.1971             0             0      0.194189   6.24853e-16      0.155702        102191        103156        229950   1.14485e-15
    0.0285285       287.588       288.367      0.342874       7.84302      -6.35775             0       7.49348       4.18661             0       25.4674        7.9286             0        58.434             0             0      0.195346   6.64625e-16      0.150671        102192        103156        228954   1.21772e-15
     0.029029       287.556        288.36      0.336861       7.31656      -6.10711             0       7.38069        4.4462             0       25.7353       10.1499             0       59.6543             0             0      0.196454   7.04327e-16      0.145854        102193        103157        227942   1.29046e-15
    0.0295295       287.541       288.355      0.329198       6.80291      -5.76058             0        7.2568       4.70174             0       26.6337       12.3433             0       60.6023             0             0       0.19676     7.429e-16      0.144523        102194        103157        226675   1.36113e-15
      0.03003       287.526        288.35      0.321519       6.29317      -5.41262             0       7.13259       4.95698             0       27.5586       14.5219             0       61.5316             0             0      0.197026   7.81638e-16      0.143364        102195        103158        225399   1.43211e-15
    0.0305305       287.526       288.347      0.313592       5.84475      -5.04222             0       7.00357       5.20752             0       28.8995       16.4676             0       62.1671             0             0      0.196668   8.22977e-16      0.144922        102198        103159        223977   1.50785e-15
     0.031031       287.527       288.344      0.305716       5.40201      -4.67425             0       6.87469       5.45769             0       30.2622       18.3911             0       62.7877             0             0      0.196282   8.64142e-16      0.146599        102200        103160        222554   1.58327e-15
    0.0315315       287.545        288.34      0.298601       5.04533      -4.34305             0       6.74804       5.70215             0       31.9547       19.9794             0       63.1817             0             0      0.195482   9.02685e-16      0.150076        102202        103161        221121   1.65389e-15
     0.032032       287.565       288.337      0.291615       4.69473      -4.01649             0       6.62154       5.94587             0       33.6685       21.5427             0       63.5632             0             0      0.194664   9.40192e-16      0.153634        102205        103162        219696   1.72261e-15
    0.0325325       287.602       288.332      0.286514       4.43325      -3.75769             0       6.49721       6.17879             0       35.6925       22.7397             0       63.7619             0             0      0.193575   9.62534e-16       0.15837        102209        103164        218401   1.76354e-15
     0.033033        287.64       288.327      0.281662       4.17651      -3.50357             0       6.37271       6.41029             0       37.7326       23.9078             0       63.9453             0             0      0.192462   9.84195e-16       0.16321        102212        103166        217119   1.80323e-15
    0.0335335       287.693        288.32      0.280323       3.98683      -3.31559             0        6.2457       6.62166             0       39.9988       24.6685             0       63.9131             0             0      0.191006   9.96203e-16       0.16954        102215        103168        216016   1.82523e-15
     0.034034       287.747       288.313      0.279247       3.79898      -3.13054             0       6.11799       6.83072             0        42.269       25.3939             0       63.8582             0             0      0.189537   1.00771e-15      0.175927        102219        103169        214931   1.84631e-15
    0.0345345       287.807       288.306      0.281765       3.63612       -2.9858             0       5.98073        7.0081             0        44.593       25.6364             0       63.4922             0             0       0.18789   1.01232e-15      0.183088        102222        103172        214071   1.85475e-15
     0.035035       287.867       288.299      0.284418        3.4719      -2.84204             0       5.84197       7.18213             0        46.909       25.8386             0       63.0965             0             0      0.186256   1.01661e-15      0.190189        102225        103174        213230   1.86262e-15
    0.0355355       287.916       288.293       0.28885       3.28951       -2.7114             0       5.68324       7.31182             0       49.1194       25.5044             0       62.3043             0             0      0.184806   1.01671e-15      0.196496        102228        103176        212641    1.8628e-15
     0.036036       287.964       288.287      0.293189       3.10381      -2.58101             0       5.52202       7.43725             0       51.3163       25.1289             0       61.4781             0             0      0.183378   1.01664e-15      0.202706        102231        103179        212069   1.86267e-15
    0.0365365       288.003       288.283      0.296322        2.8753       -2.4538             0       5.32854       7.50772             0       53.3398       24.2198             0       60.2131             0             0      0.182237   1.01435e-15      0.207665        102234        103182        211715   1.85848e-15
     0.037037        288.04        288.28      0.299277       2.64311      -2.32775             0       5.13173       7.57336             0       55.3492       23.2728             0       58.9121             0             0       0.18113   1.01209e-15      0.212477        102236        103186        211374   1.85434e-15
    0.0375375       288.069       288.278      0.300006       2.36471      -2.21631             0       4.89325       7.57844             0       57.1828       21.8508             0       57.1613             0             0      0.180447   1.01015e-15      0.215446        102239        103189        211206   1.85077e-15
     0.038038       288.097       288.276      0.300628       2.08306       -2.1065             0       4.65069        7.5786             0       59.0081       20.4018             0       55.3752             0             0      0.179802   1.00832e-15      0.218251        102241        103193        211051   1.84743e-15
    0.0385385       288.117       288.275      0.299951       1.76195      -2.01645             0       4.35844       7.51896             0       60.7307        18.624             0       53.1613             0             0      0.179614   1.00792e-15       0.21907        102243        103197        211058   1.84671e-15
     0.039039       288.137       288.274      0.299062       1.44093      -1.92828             0       4.06169       7.45455             0       62.4506       16.8342             0       50.9171             0             0      0.179446   1.00762e-15      0.219802        102245        103201        211076   1.84615e-15
    0.0395395       288.156       288.273      0.295671       1.12095      -1.86238             0       3.71161       7.33374             0       64.1369       14.9031             0       48.3147             0             0      0.179512   1.00842e-15      0.219513        102246        103205        211229   1.84762e-15
      0.04004       288.175       288.273      0.291924      0.809327      -1.79928             0       3.35796       7.20812             0       65.8027       12.9675             0       45.6922             0             0      0.179587   1.00931e-15      0.219188        102247        103210        211389   1.84925e-15
    0.0405405       288.193       288.275      0.284087      0.593748      -1.76842             0       2.96332       7.02715             0       67.2316       10.9807             0       42.8373             0             0      0.179759   1.01125e-15      0.218439        102247        103215        211635   1.85281e-15
     0.041041        288.21       288.277      0.276047      0.393908      -1.73956             0       2.56747       6.84135             0       68.5964       8.99021             0       39.9688             0             0      0.179936    1.0133e-15      0.217671        102248        103220        211882   1.85656e-15
    0.0415415       288.222       288.282      0.265735      0.370268       -1.7332             0       2.15815       6.60156             0       69.2432       6.95891             0       36.9479             0             0      0.180158    1.0165e-15      0.216704        102248        103225        212145   1.86243e-15
     0.042042       288.234       288.287      0.255379      0.362301      -1.72606             0       1.74946       6.35726             0       69.8073       4.93147             0       33.9183             0             0      0.180384   1.01973e-15      0.215724        102248        103230        212408   1.86833e-15
    0.0425425       288.238       288.295      0.244548      0.525252      -1.71032             0       1.34767       6.06363             0       69.4708       2.94625             0        30.793             0             0       0.18064   1.02315e-15      0.214608        102248        103235        212681   1.87461e-15
     0.043043       288.241       288.303      0.233611      0.694798      -1.69148             0      0.946276       5.76646             0       69.0912      0.977627             0       27.6701             0             0      0.180911   1.02666e-15      0.213432        102248        103240        212958   1.88103e-15
    0.0435435       288.233       288.317      0.221559      0.934444      -1.63969             0      0.549017       5.43177             0       68.2536     -0.814535             0       24.5729             0             0      0.181331   1.03099e-15      0.211604        102248        103245        213278   1.88897e-15
     0.044044       288.226        288.33      0.209498       1.17107      -1.58424             0      0.153493       5.09376             0       67.3725      -2.56571             0       21.4925             0             0      0.181772   1.03555e-15      0.209687        102248        103250        213602   1.89732e-15
    0.0445445       288.227       288.348      0.197339       1.37635      -1.49089             0     -0.224054       4.72135             0       66.0418      -3.89209             0       18.5858             0             0      0.182425   1.04247e-15      0.206849        102249        103255        213967   1.90999e-15
     0.045045        288.23       288.365      0.185576       1.57699       -1.3947             0     -0.596401       4.34483             0       64.6234      -5.15033             0       15.7048             0             0      0.183082   1.04947e-15      0.203991        102249        103259        214337   1.92283e-15
    0.0455455       288.239       288.379      0.177829       1.73068       -1.2699             0     -0.916177       3.92679             0       62.3186      -5.71952             0        13.085             0             0      0.183783   1.05738e-15      0.200943        102250        103264        214756   1.93732e-15