#           y             T         TMean   TPrime2Mean           U_x           U_y           U_z       UMean_x       UMean_y       UMean_z UPrime2Mea... UPrime2Mea... UPrime2Mea... UPrime2Mea... UPrime2Mea... UPrime2Mea...            O2           H2O          C3H8             p         pMean   pPrime2Mean           CO2
            0       287.636       288.012      0.064035       24.3578             0             0       22.5208             0             0       5.73837             0             0             0             0             0          0.23   5.44873e-22    2.0362e-10        101869        103205        237074    9.9831e-22
  0.000500501       287.637       288.012     0.0640501       24.3706     0.0412887             0       22.5225      0.012759             0       5.75124      0.135904             0     0.0404623             0             0          0.23    1.3553e-21   2.38817e-09        101870        103205        236606   2.48316e-21
     0.001001       287.638       288.012     0.0640649       24.3834      0.082565             0       22.5241     0.0255248             0       5.76425      0.271816             0     0.0810363             0             0          0.23   2.17675e-21   4.75362e-09        101872        103205        236136   3.98821e-21
    0.0015015        287.64       288.012     0.0639309       24.4404      0.117627             0       22.5198     0.0417157             0        5.8496      0.411381             0      0.177356             0             0          0.23   8.49631e-21   9.73904e-08        101877        103205        234852   1.55668e-20
     0.002002       287.642       288.012     0.0637966       24.4975      0.152607             0       22.5156     0.0578897             0       5.93521      0.551079             0       0.27411             0             0          0.23   1.49534e-20   2.04429e-07        101882        103205        233565   2.73974e-20
    0.0025025       287.644       288.012      0.063586       24.5904      0.166894             0       22.5153     0.0698632             0       6.08495      0.723689             0      0.478988             0             0      0.229999   5.56559e-20   3.89754e-06        101888        103205        231549   1.01972e-19
     0.003003       287.646       288.012     0.0633749       24.6839       0.18106             0        22.515     0.0819153             0       6.23617      0.896345             0      0.684625             0             0      0.229998   9.77767e-20   8.45925e-06        101894        103205        229531   1.79145e-19
    0.0035035       287.648       288.012     0.0630961        24.877       0.17493             0       22.5044      0.106977             0       6.63279       1.07648             0       1.01602             0             0      0.229964   3.74854e-19    0.00015692        101900        103205        226967   6.86803e-19
     0.004004       287.649       288.012     0.0628127        25.071      0.168304             0       22.4938      0.131961             0       7.03183       1.25795             0       1.35108             0             0      0.229923   6.64713e-19   0.000334094        101907        103205        224400   1.21788e-18
    0.0045045       287.662       288.013     0.0619475       25.3826      0.100022             0       22.4942      0.147346             0       7.73162       1.60566             0       2.14086             0             0      0.229064   2.53949e-18    0.00407165        101911        103204        221419   4.65283e-18
   0.00500501       287.676       288.014     0.0611219       25.6957     0.0314248             0       22.4942      0.162972             0       8.44038       1.95295             0       2.93814             0             0      0.228156   4.45885e-18    0.00801649        101916        103203        218437   8.16944e-18
   0.00550551       287.781       288.027     0.0642155       26.1495    -0.0684432             0       22.4525      0.202387             0       10.0371       2.25912             0       4.47707             0             0      0.222529   1.07907e-17     0.0324825        101920        103202        215403   1.97706e-17
   0.00600601       287.891        288.04      0.067584       26.6006     -0.171765             0       22.4107      0.241193             0       11.6316       2.57241             0       6.04503             0             0      0.216784   1.71827e-17     0.0574611        101924        103200        212373    3.1482e-17
   0.00650651       288.361       288.075     0.0935769       26.8309     -0.559444             0        22.366      0.229743             0       13.0361       3.47265             0       10.0032             0             0      0.201332   2.85265e-17      0.124643        101922        103196        209711   5.22659e-17
   0.00700701       288.843       288.109      0.120097       27.0517     -0.951125             0       22.3217      0.219258             0       14.4128       4.36872             0       13.9839             0             0      0.185798   3.99286e-17      0.192181        101921        103192        207057   7.31566e-17
   0.00750751       290.206       288.153      0.183763       26.6037      -1.62469             0       22.3174      0.276687             0       13.8322       4.97065             0       19.5514             0             0        0.1645   5.54354e-17      0.284783        101914        103186        205019   1.01568e-16
   0.00800801       291.601       288.197       0.25057        26.141        -2.294             0       22.3029      0.332062             0       13.2364       5.53286             0       25.1301             0             0      0.143352   7.10898e-17      0.376732        101907        103180        202983    1.3025e-16
   0.00850851       295.035        288.22      0.510492       24.7674      -2.70147             0       21.6619      0.261156             0       11.7016       3.65163             0       31.3966             0             0      0.131457   9.58163e-17      0.428448        101900        103172        201008   1.75553e-16
   0.00900901       298.463       288.243      0.771922       23.3891      -3.10327             0       21.0185      0.190574             0       10.1652       1.75354             0       37.6206             0             0      0.119785   1.20628e-16      0.479194        101893        103164        199012   2.21014e-16
   0.00950951       301.543       288.249       1.11553       21.7519       -3.1951             0       20.2517      0.137583             0       8.54003      -1.06448             0       41.5266             0             0      0.120294   1.50108e-16      0.476984        101899        103160        195823   2.75026e-16
      0.01001        304.59       288.255       1.45621       20.1098      -3.27982             0       19.4785     0.0876935             0        6.9405       -3.8523             0       45.3323             0             0      0.120943   1.79713e-16      0.474161        101906        103156        192608   3.29267e-16
    0.0105105       305.957        288.24       1.65314       18.2303      -3.01634             0       18.3888      0.189798             0        6.5959      -5.16037             0       44.2262             0             0      0.128504   2.15417e-16      0.441287        101919        103161        188099   3.94685e-16
     0.011011       307.315       288.224       1.84764       16.3495      -2.74424             0       17.2837      0.291209             0       6.27257      -6.43133             0       43.0355             0             0      0.136087   2.50969e-16      0.408317        101933        103166        183569   4.59822e-16
    0.0115115       308.271       288.144       1.93413        14.412      -2.08965             0       15.4935      0.361793             0       6.89485      -6.05268             0       38.0861             0             0      0.144641   2.79727e-16      0.371127        101956        103175        178103   5.12512e-16
     0.012012       309.202       288.064       2.01676       12.4782      -1.43413             0       13.7063      0.430473             0       7.49862      -5.64785             0       33.0951             0             0       0.15302   3.07755e-16      0.334695        101979        103184        172648   5.63864e-16
    0.0125125       309.122       287.992       1.94265       10.6939     -0.740938             0       12.0427      0.421668             0        7.3496      -4.17841             0       26.4122             0             0      0.154303   3.06105e-16      0.329118        102009        103191        167658   5.60842e-16
     0.013013       309.007       287.923       1.86445       8.93644    -0.0613983             0       10.4056      0.410965             0       7.18758      -2.71783             0       19.8044             0             0      0.155154   3.03512e-16      0.325416        102039        103198        162706    5.5609e-16
    0.0135135       307.584       287.942       1.63314        8.1842      0.106661             0       9.75908      0.329158             0       6.53845      -1.58911             0       16.0108             0             0      0.139853   2.65536e-16      0.391944        102069        103202        159231   4.86511e-16
     0.014014       306.151       287.962       1.40167        7.4687      0.275011             0       9.13783      0.250012             0       5.88831     -0.485567             0       12.2759             0             0      0.124237   2.27197e-16       0.45984        102098        103205        155782   4.16267e-16
    0.0145145       304.333       288.016       1.16459       8.02862      0.453448             0       9.39272      0.263182             0       5.20334     -0.256101             0       10.5759             0             0     0.0976876   1.76259e-16      0.575271        102124        103207        153286    3.2294e-16
     0.015015       302.552        288.07      0.931815       8.58563      0.626331             0       9.64474      0.274696             0       4.53918    -0.0338942             0       8.91204             0             0     0.0716729   1.26352e-16      0.688379        102150        103208        150824   2.31501e-16
    0.0155155        301.95       288.098      0.838374       9.04868      0.619646             0       9.80397      0.232677             0       4.54794    -0.0463912             0       8.41736             0             0     0.0629402   1.09769e-16      0.726347        102166        103208        149482   2.01117e-16
     0.016016       301.274       288.127      0.743265       9.50037      0.600844             0        9.9823       0.18839             0       4.63929    -0.0890649             0       7.96144             0             0     0.0551087    9.3568e-17      0.760397        102182        103207        148158   1.71434e-16
    0.0165165       298.365       288.138      0.597661       9.60839      0.215535             0       10.7384     0.0754723             0       7.22921      -1.04458             0       8.67799             0             0     0.0745383   8.89526e-17       0.67592        102196        103207        147379   1.62978e-16
     0.017017       295.438        288.15      0.451777       9.80451      -0.16469             0       11.5599    -0.0417879             0       9.83624      -2.01313             0       9.38197             0             0      0.094467   8.39037e-17      0.589274        102210        103206        146597   1.53727e-16
    0.0175175       292.012       288.157      0.297938       12.5036     -0.400456             0       14.2387     -0.282418             0       12.9295      -3.35189             0       9.72867             0             0      0.128575    6.6539e-17      0.440977        102220        103206        145713   1.21912e-16
     0.018018       288.693       288.162      0.149098       15.2301     -0.634953             0       16.9084     -0.514731             0       15.9482      -4.65908             0       10.0763             0             0       0.16235   4.93333e-17       0.29413        102231        103206        144828   9.03878e-17
    0.0185185       288.256       288.137      0.134104       18.6925     -0.835431             0       19.3328      -0.52434             0       16.9705      -5.12088             0       10.4479             0             0      0.187193   3.63836e-17      0.186117        102238        103204        143902   6.66616e-17
     0.019019       287.836       288.112      0.119068       22.0467      -1.01926             0       21.6903     -0.531542             0       17.9474      -5.55824             0       10.7997             0             0      0.211384   2.36429e-17     0.0809413        102245        103203        143008   4.33182e-17
    0.0195195       287.819       288.074      0.102995       22.6612     -0.781595             0       22.3541     -0.477818             0       17.7734        -5.377             0       10.6506             0             0      0.219051   1.61917e-17     0.0476052        102252        103204        142922   2.96662e-17
      0.02002       287.802       288.036     0.0871123       23.2602      -0.53766             0        23.002     -0.425273             0       17.5815      -5.19323             0       10.4993             0             0      0.226476   8.92401e-18     0.0153197        102259        103204        142855   1.63505e-17
    0.0205205       287.802       288.019     0.0757839       23.4857     -0.143258             0       23.2681     -0.401022             0       16.9595      -4.94879             0       10.2982             0             0      0.228103   6.06217e-18    0.00824998        102266        103204        143252    1.1107e-17
     0.021021       287.801       288.001     0.0647518       23.7115      0.243835             0       23.5191     -0.372724             0       16.3468      -4.68639             0       10.1429             0             0      0.229665   3.44184e-18    0.00145739        102274        103204        143648    6.3061e-18
    0.0215215       287.805       288.003       0.06048       23.9449      0.464204             0       23.4253     -0.252107             0       15.9455      -4.01456             0       11.0356             0             0      0.229773   6.33041e-18   0.000986045        102279        103202        144027   1.15985e-17
     0.022022       287.809       288.005     0.0562561        24.153      0.684929             0        23.308     -0.130826             0         15.56      -3.29121             0       11.9621             0             0      0.229869   9.70622e-18   0.000570015        102284        103200        144413   1.77836e-17
    0.0225225       287.821       288.027     0.0530738       23.8084      0.913382             0       22.6797     0.0048616             0       15.5183      -1.44862             0       13.6239             0             0      0.229688   2.36685e-17    0.00135587        102286        103197        144960    4.3365e-17
     0.023023       287.833        288.05     0.0499562       23.3971       1.13838             0       21.9995      0.147084             0       15.5652      0.456833             0       15.2975             0             0      0.229495   3.84254e-17    0.00219442        102289        103194        145503   7.04025e-17
    0.0235235       287.847       288.096      0.048181       21.6023       1.29175             0       20.2457      0.424838             0       17.4488       3.66599             0       17.2151             0             0      0.229051   6.96644e-17    0.00412603        102288        103190        145967   1.27638e-16
     0.024024        287.86       288.142     0.0467399       19.6749       1.42891             0       18.4298      0.696346             0       19.6551       6.80913             0        19.183             0             0      0.228601   1.01169e-16    0.00608228        102286        103185        146454    1.8536e-16
    0.0245245       287.873       288.203     0.0519231       15.1187       1.24448             0       15.3833      0.843988             0       28.2601       8.64286             0       22.1477             0             0      0.228039   1.37942e-16    0.00852743        102287        103180        147380   2.52736e-16
     0.025025       287.886       288.263     0.0573878       10.5175       1.05195             0       12.3475      0.977169             0       37.1975       10.2916             0       25.1775             0             0      0.227457   1.75788e-16     0.0110572        102287        103175        148304   3.22077e-16
    0.0255255       287.891       288.314     0.0682001       5.06031      0.705551             0       9.51512       0.83561             0        52.452       8.42575             0       29.4458             0             0      0.226505   2.34013e-16     0.0151953        102294        103168        149188   4.28755e-16
     0.026026       287.895       288.364     0.0789113       -0.2633      0.350676             0       6.74079      0.687517             0       67.4816       6.48894             0       33.7087             0             0      0.225506   2.97536e-16     0.0195371        102301        103161        150071   5.45141e-16
    0.0265265       287.903       288.392     0.0877792      -3.15214     -0.158701             0       5.02446      0.420282             0       78.4139        3.2586             0       37.8716             0             0      0.223653   4.57668e-16     0.0275937        102311        103153        150943   8.38532e-16
     0.027027       287.912       288.419     0.0963668      -5.89498     -0.684579             0       3.34356      0.147877             0       88.7223     0.0202287             0       41.9851             0             0      0.221846   6.18162e-16     0.0354522        102322        103145        151846   1.13259e-15
    0.0275275       287.959       288.435      0.100043      -6.07995      -1.49954             0        2.2834     -0.215111             0        88.102      -3.35888             0       45.2338             0             0      0.220837   7.85007e-16     0.0398393        102330        103136        153295   1.43828e-15
     0.028028       288.006       288.451      0.103522      -6.22962      -2.31126             0       1.24221     -0.580528             0        87.043      -6.71803             0       48.3837             0             0      0.219899   9.45486e-16     0.0439168        102338        103128        154782   1.73231e-15
    0.0285285       288.062       288.463      0.103664       -5.7841      -3.06825             0      0.520842     -0.986916             0       78.5864      -9.74062             0       49.8666             0             0      0.220162    9.9866e-16     0.0427745        102342        103121        156907   1.82973e-15
     0.029029       288.116       288.475      0.103662      -5.34843      -3.82247             0     -0.195464      -1.39161             0       69.9947      -12.6575             0       51.2459             0             0      0.220414   1.04901e-15     0.0416762        102345        103114        159055   1.92198e-15
    0.0295295       288.149       288.484      0.101332      -5.07296      -4.53187             0     -0.829596      -1.76876             0       59.2077      -13.8575             0       50.9429             0             0      0.220503   1.05343e-15     0.0412914        102346        103108        161561   1.93009e-15
      0.03003       288.181       288.494     0.0989526      -4.80334      -5.23404             0      -1.45999      -2.14272             0       48.5234      -14.9304             0         50.56             0             0      0.220583   1.05755e-15     0.0409438        102347        103103        164065   1.93762e-15
    0.0305305       288.196       288.502     0.0958073      -4.62529      -5.82296             0      -2.03174      -2.46667             0       39.4468      -14.0119             0       48.9246             0             0      0.220529   1.05673e-15     0.0411799        102345        103100        166527   1.93613e-15
     0.031031        288.21        288.51     0.0927633      -4.45361      -6.40293             0      -2.59782      -2.78451             0       30.6666      -13.0066             0        47.233             0             0      0.220472   1.05586e-15     0.0414267        102344        103098        168971   1.93453e-15
    0.0315315       288.213       288.515      0.091252      -4.37821      -6.84732             0      -3.07793      -3.01007             0       26.3713      -10.6877             0       44.6904             0             0      0.220378   1.05412e-15     0.0418351        102341        103098        171139   1.93134e-15
     0.032032       288.217        288.52     0.0898543      -4.30289      -7.28245             0      -3.54736      -3.22963             0       22.3629      -8.36072             0       42.1208             0             0      0.220285   1.05238e-15       0.04224        102338        103099        173307   1.92816e-15
    0.0325325       288.216       288.521     0.0901181      -4.22893      -7.58214             0      -3.86042      -3.36138             0       22.5498      -5.91578             0       39.1546             0             0      0.220203    1.0507e-15     0.0425944        102335        103102        175482   1.92508e-15
     0.033033       288.216       288.522     0.0904233      -4.15202      -7.87449             0      -4.16085      -3.48752             0        22.866      -3.51221             0       36.1864             0             0      0.220127   1.04905e-15     0.0429245        102331        103106        177694   1.92206e-15
    0.0335335       288.213       288.522     0.0913156      -4.03337      -8.06296             0      -4.28258      -3.53438             0        25.011      -1.69397             0       33.1909             0             0       0.22013   1.04786e-15     0.0429113        102328        103111        180439   1.91988e-15
     0.034034       288.211       288.522     0.0921858      -3.91077       -8.2421             0      -4.39302      -3.57759             0       27.1452     0.0809997             0       30.2161             0             0      0.220137   1.04668e-15     0.0428807        102324        103116        183223   1.91771e-15
    0.0345345       288.209       288.522     0.0927544      -3.73387      -8.29343             0      -4.34867      -3.57078             0       29.1302       1.26294             0       27.5255             0             0      0.220199   1.04553e-15     0.0426123        102321        103121        186558   1.91561e-15
     0.035035       288.206       288.523     0.0932388      -3.55206      -8.33649             0      -4.29598       -3.5607             0        31.026       2.41135             0       24.8607             0             0      0.220263   1.04437e-15     0.0423349        102319        103126        189910   1.91348e-15
    0.0355355       288.204       288.525      0.092604      -3.30506      -8.26977             0      -4.13266      -3.50702             0       31.7351       3.11428             0       22.5381             0             0      0.220355     1.043e-15     0.0419362        102317        103131        193480   1.91097e-15
     0.036036       288.202       288.528     0.0918336      -3.05155      -8.19587             0      -3.96238      -3.44998             0       32.3238       3.77457             0       20.2415             0             0      0.220447   1.04158e-15     0.0415344        102315        103135        197035   1.90837e-15
    0.0365365       288.201       288.534     0.0893144      -2.71418      -8.02942             0      -3.70257      -3.34957             0       31.3603       3.88531             0        18.281             0             0      0.220549   1.03948e-15     0.0410908        102315        103139        200409   1.90452e-15
     0.037037       288.199        288.54      0.086726      -2.37263      -7.85678             0      -3.43836      -3.24565             0       30.2992       3.95486             0       16.3502             0             0      0.220648   1.03733e-15     0.0406601        102315        103143        203749   1.90058e-15
    0.0375375       288.199       288.549     0.0832727      -1.97881      -7.60671             0      -3.11908       -3.0977             0        28.018       3.50896             0       14.7914             0             0       0.22071   1.03457e-15     0.0403896        102316        103145        206676   1.89552e-15
     0.038038       288.199       288.557     0.0798082       -1.5824       -7.3519             0      -2.79812      -2.94737             0        25.724       3.04681             0       13.2666             0             0      0.220769   1.03181e-15     0.0401339        102317        103148        209563   1.89047e-15
    0.0385385         288.2       288.568     0.0762065      -1.15451      -7.03945             0      -2.45687      -2.76808             0       23.2749       2.38722             0       12.1558             0             0      0.220786   1.02918e-15     0.0400588        102319        103150        211976   1.88565e-15
     0.039039       288.201       288.578     0.0726493     -0.726079      -6.72413             0      -2.11584       -2.5877             0        20.879       1.73433             0       11.0708             0             0        0.2208   1.02652e-15     0.0399997        102322        103151        214354   1.88078e-15
    0.0395395       288.202       288.586     0.0696194     -0.291169      -6.37493             0      -1.77732      -2.39449             0        19.112       1.16074             0       10.2901             0             0       0.22077   1.02352e-15     0.0401294        102325        103153        216324   1.87527e-15
      0.04004       288.204       288.595     0.0667161       0.14358      -6.02469             0      -1.43871      -2.20148             0       17.3989      0.597154             0       9.52014             0             0      0.220737   1.02055e-15     0.0402747        102328        103154        218265   1.86985e-15
    0.0405405       288.207         288.6     0.0652696      0.576479      -5.66255             0      -1.09917      -2.01077             0       16.3047      0.148688             0       8.87334             0             0      0.220662   1.01807e-15     0.0406001        102331        103155        219859   1.86529e-15
     0.041041        288.21       288.606     0.0639003       1.00763      -5.30083             0     -0.758184      -1.82065             0        15.228     -0.287572             0       8.22804             0             0      0.220582   1.01575e-15     0.0409476        102334        103156        221427   1.86104e-15
    0.0415415       288.215       288.611     0.0633942       1.41914      -4.94392             0     -0.401002      -1.63707             0       14.3457     -0.587187             0       7.59944             0             0      0.220445   1.01528e-15     0.0415427        102338        103157        222702   1.86018e-15
     0.042042        288.22       288.617      0.062921       1.82769      -4.58809             0    -0.0423849      -1.45455             0       13.4809     -0.870069             0       6.96969             0             0      0.220306   1.01503e-15     0.0421482        102341        103159        223951   1.85972e-15
    0.0425425       288.225       288.622     0.0628069        2.2039      -4.24405             0      0.331879      -1.28362             0       12.8055     -0.970491             0       6.32751             0             0       0.22014   1.01713e-15     0.0428685        102343        103160        224917   1.86357e-15
     0.043043        288.23       288.627     0.0627079       2.57517      -3.90177             0      0.705348      -1.11427             0       12.1801       -1.0544             0       5.68586             0             0      0.219971   1.01955e-15     0.0436022        102346        103162        225861     1.868e-15
    0.0435435       288.236       288.631     0.0627704       2.89405      -3.57819             0       1.07037     -0.961838             0       12.0868     -0.962862             0       5.04981             0             0       0.21977   1.02537e-15      0.044479        102348        103163        226559   1.87867e-15
     0.044044       288.242       288.635     0.0627817       3.20745      -3.25697             0       1.43349     -0.811128             0       12.0502     -0.860693             0       4.41952             0             0      0.219558   1.03168e-15     0.0453988        102350        103165        227242   1.89024e-15
    0.0445445       288.251       288.638     0.0622634       3.46403      -2.96017             0       1.77698      -0.67824             0       12.6008     -0.648383             0       3.84884             0             0      0.219244   1.04305e-15     0.0467649        102352        103167        227760   1.91106e-15
     0.045045        288.26       288.641     0.0616007       3.71597      -2.66677             0       2.11599     -0.548007             0       13.1859     -0.434295             0       3.28493             0             0      0.218917   1.05504e-15     0.0481871        102354        103169        228271   1.93303e-15
    0.0455455       288.277       288.642     0.0594782       3.92104      -2.40779             0       2.40988     -0.444614             0       14.1191     -0.202234             0       2.78955             0             0       0.21846   1.07343e-15     0.0501758        102355        103171        228712   1.96673e-15