#           y             T         TMean   TPrime2Mean           U_x           U_y           U_z       UMean_x       UMean_y       UMean_z UPrime2Mea... UPrime2Mea... UPrime2Mea... UPrime2Mea... UPrime2Mea... UPrime2Mea...            O2           H2O          C3H8             p         pMean   pPrime2Mean           CO2
         0.04       288.142       288.424      0.102834      -9.82557      -8.88724             0      -4.98236      -7.32502             0        20.995       7.36025             0       40.9254             0             0      0.199095   9.26502e-16      0.134369        102275        103189        157966   1.69752e-15
     0.039975       288.139       288.424      0.102928      -9.82652      -8.90756             0      -4.97537      -7.33088             0       21.0377       7.24351             0       41.1026             0             0      0.199202    9.2377e-16      0.133903        102274        103189        157959   1.69252e-15
    0.0399499       288.137       288.424      0.103023      -9.82748      -8.92787             0      -4.96839      -7.33673             0       21.0803       7.12678             0       41.2799             0             0       0.19931   9.21039e-16      0.133437        102273        103188        157952   1.68752e-15
    0.0399249       288.134       288.424      0.103118      -9.82844      -8.94819             0      -4.96141      -7.34258             0        21.123       7.01004             0       41.4572             0             0      0.199417   9.18307e-16      0.132971        102273        103188        157946   1.68251e-15
    0.0398999       288.131       288.423      0.103212      -9.82939      -8.96851             0      -4.95442      -7.34843             0       21.1656        6.8933             0       41.6344             0             0      0.199524   9.15576e-16      0.132505        102272        103188        157939   1.67751e-15
    0.0398749       288.128       288.423      0.103307      -9.83035      -8.98882             0      -4.94744      -7.35428             0       21.2083       6.77656             0       41.8117             0             0      0.199631   9.12844e-16      0.132039        102272        103188        157932    1.6725e-15
    0.0398498       288.125       288.423      0.103402      -9.83131      -9.00914             0      -4.94046      -7.36013             0        21.251       6.65982             0        41.989             0             0      0.199738   9.10113e-16      0.131574        102271        103187        157925    1.6675e-15
    0.0398248       288.122       288.423      0.103496      -9.83226      -9.02946             0      -4.93347      -7.36598             0       21.2936       6.54309             0       42.1663             0             0      0.199845   9.07381e-16      0.131108        102270        103187        157919   1.66249e-15
    0.0397998        288.12       288.422      0.103591      -9.83322      -9.04978             0      -4.92649      -7.37183             0       21.3363       6.42635             0       42.3435             0             0      0.199953    9.0465e-16      0.130642        102270        103187        157912   1.65749e-15
    0.0397748       288.117       288.422      0.103686      -9.83418      -9.07009             0      -4.91951      -7.37768             0       21.3789       6.30961             0       42.5208             0             0       0.20006   9.01918e-16      0.130176        102269        103187        157905   1.65248e-15
    0.0397497       288.114       288.422       0.10378      -9.83513      -9.09041             0      -4.91252      -7.38354             0       21.4216       6.19287             0       42.6981             0             0      0.200167   8.99187e-16       0.12971        102268        103187        157898   1.64748e-15
    0.0397247       288.111       288.422      0.103875      -9.83609      -9.11073             0      -4.90554      -7.38939             0       21.4643       6.07613             0       42.8753             0             0      0.200274   8.96455e-16      0.129244        102268        103186        157892   1.64247e-15
    0.0396997       288.108       288.421       0.10397      -9.83705      -9.13104             0      -4.89856      -7.39524             0       21.5069        5.9594             0       43.0526             0             0      0.200381   8.93723e-16      0.128778        102267        103186        157885   1.63747e-15
    0.0396747       288.105       288.421      0.104064        -9.838      -9.15136             0      -4.89157      -7.40109             0       21.5496       5.84266             0       43.2299             0             0      0.200488   8.90992e-16      0.128312        102266        103186        157878   1.63246e-15
    0.0396496       288.103       288.421      0.104159      -9.83896      -9.17168             0      -4.88459      -7.40694             0       21.5923       5.72592             0       43.4071             0             0      0.200596    8.8826e-16      0.127846        102266        103186        157871   1.62746e-15
    0.0396246         288.1        288.42      0.104254      -9.83992      -9.19199             0      -4.87761      -7.41279             0       21.6349       5.60918             0       43.5844             0             0      0.200703   8.85529e-16       0.12738        102265        103185        157865   1.62245e-15
    0.0395996       288.097        288.42      0.104348      -9.84087      -9.21231             0      -4.87062      -7.41864             0       21.6776       5.49244             0       43.7617             0             0       0.20081   8.82797e-16      0.126914        102264        103185        157858   1.61745e-15
    0.0395746       288.094        288.42      0.104443      -9.84183      -9.23263             0      -4.86364      -7.42449             0       21.7202       5.37571             0       43.9389             0             0      0.200917   8.80066e-16      0.126448        102264        103185        157851   1.61244e-15
    0.0395495       288.091        288.42      0.104538      -9.84279      -9.25294             0      -4.85666      -7.43034             0       21.7629       5.25897             0       44.1162             0             0      0.201024   8.77334e-16      0.125982        102263        103185        157844   1.60744e-15
    0.0395245       288.089       288.419      0.104632      -9.84374      -9.27326             0      -4.84967      -7.43619             0       21.8056       5.14223             0       44.2935             0             0      0.201131   8.74603e-16      0.125516        102263        103185        157838   1.60244e-15
    0.0394995       288.086       288.419      0.104727       -9.8447      -9.29358             0      -4.84269      -7.44205             0       21.8482       5.02549             0       44.4707             0             0      0.201239   8.71871e-16       0.12505        102262        103184        157831   1.59743e-15
    0.0394745       288.083       288.419      0.104822      -9.84566      -9.31389             0      -4.83571       -7.4479             0       21.8909       4.90875             0        44.648             0             0      0.201346    8.6914e-16      0.124584        102261        103184        157824   1.59243e-15
    0.0394494        288.08       288.419      0.104916      -9.84661      -9.33421             0      -4.82872      -7.45375             0       21.9335       4.79201             0       44.8253             0             0      0.201453   8.66408e-16      0.124118        102261        103184        157817   1.58742e-15
    0.0394244       288.077       288.418      0.105011      -9.84757      -9.35453             0      -4.82174       -7.4596             0       21.9762       4.67528             0       45.0026             0             0       0.20156   8.63676e-16      0.123652        102260        103184        157811   1.58242e-15
    0.0393994       288.074       288.418      0.105106      -9.84853      -9.37485             0      -4.81476      -7.46545             0       22.0189       4.55854             0       45.1798             0             0      0.201667   8.60945e-16      0.123186        102259        103183        157804   1.57741e-15
    0.0393744       288.072       288.418        0.1052      -9.84948      -9.39516             0      -4.80777       -7.4713             0       22.0615        4.4418             0       45.3571             0             0      0.201774   8.58213e-16       0.12272        102259        103183        157797   1.57241e-15
    0.0393493       288.069       288.418      0.105295      -9.85044      -9.41548             0      -4.80079      -7.47715             0       22.1042       4.32506             0       45.5344             0             0      0.201882   8.55482e-16      0.122254        102258        103183        157790    1.5674e-15
    0.0393243       288.066       288.417       0.10539       -9.8514       -9.4358             0      -4.79381        -7.483             0       22.1468       4.20832             0       45.7116             0             0      0.201989    8.5275e-16      0.121789        102257        103183        157784    1.5624e-15
    0.0392993       288.063       288.417      0.105484      -9.85235      -9.45611             0      -4.78682      -7.48885             0       22.1895       4.09159             0       45.8889             0             0      0.202096   8.50019e-16      0.121323        102257        103183        157777   1.55739e-15
    0.0392743        288.06       288.417      0.105579      -9.85331      -9.47643             0      -4.77984      -7.49471             0       22.2322       3.97485             0       46.0662             0             0      0.202203   8.47287e-16      0.120857        102256        103182        157770   1.55239e-15
    0.0392492       288.057       288.416      0.105674      -9.85427      -9.49675             0      -4.77286      -7.50056             0       22.2748       3.85811             0       46.2434             0             0       0.20231   8.44556e-16      0.120391        102255        103182        157763   1.54738e-15
    0.0392242       288.055       288.416      0.105768      -9.85522      -9.51706             0      -4.76587      -7.50641             0       22.3175       3.74137             0       46.4207             0             0      0.202417   8.41824e-16      0.119925        102255        103182        157757   1.54238e-15
    0.0391992       288.052       288.416      0.105863      -9.85618      -9.53738             0      -4.75889      -7.51226             0       22.3601       3.62463             0        46.598             0             0      0.202525   8.39093e-16      0.119459        102254        103182        157750   1.53737e-15
    0.0391742       288.049       288.416      0.105958      -9.85714       -9.5577             0      -4.75191      -7.51811             0       22.4028        3.5079             0       46.7752             0             0      0.202632   8.36361e-16      0.118993        102253        103182        157743   1.53237e-15
    0.0391491       288.046       288.415      0.106052      -9.85809      -9.57801             0      -4.74493      -7.52396             0       22.4455       3.39116             0       46.9525             0             0      0.202739   8.33629e-16      0.118527        102253        103181        157736   1.52736e-15
    0.0391241       288.043       288.415      0.106147      -9.85905      -9.59833             0      -4.73794      -7.52981             0       22.4881       3.27442             0       47.1298             0             0      0.202846   8.30898e-16      0.118061        102252        103181        157730   1.52236e-15
    0.0390991        288.04       288.415      0.106242      -9.86001      -9.61865             0      -4.73096      -7.53566             0       22.5308       3.15768             0        47.307             0             0      0.202953   8.28166e-16      0.117595        102252        103181        157723   1.51736e-15
    0.0390741       288.038       288.415      0.106337      -9.86096      -9.63896             0      -4.72398      -7.54151             0       22.5734       3.04094             0       47.4843             0             0       0.20306   8.25435e-16      0.117129        102251        103181        157716   1.51235e-15
     0.039049       288.035       288.414      0.106431      -9.86192      -9.65928             0      -4.71699      -7.54736             0       22.6161       2.92421             0       47.6616             0             0      0.203168   8.22703e-16      0.116663        102250        103180        157709   1.50735e-15
     0.039024       288.032       288.414      0.106526      -9.86288       -9.6796             0      -4.71001      -7.55322             0       22.6588       2.80747             0       47.8388             0             0      0.203275   8.19972e-16      0.116197        102250        103180        157703   1.50234e-15
     0.038999       288.029       288.414      0.106618       -9.8643       -9.7002             0      -4.70279      -7.55893             0       22.7008       2.69134             0       48.0165             0             0      0.203383   8.17214e-16      0.115727        102249        103180        157696   1.49729e-15
     0.038974       288.026       288.413      0.106644      -9.87701      -9.72757             0      -4.68985      -7.56124             0       22.7283        2.5898             0       48.2045             0             0      0.203514   8.13829e-16      0.115157        102248        103180        157699   1.49109e-15
    0.0389489       288.023       288.413       0.10667      -9.88971      -9.75495             0      -4.67691      -7.56355             0       22.7558       2.48826             0       48.3925             0             0      0.203645   8.10444e-16      0.114587        102247        103180        157702   1.48488e-15
    0.0389239       288.019       288.413      0.106696      -9.90242      -9.78233             0      -4.66397      -7.56587             0       22.7832       2.38673             0       48.5805             0             0      0.203776   8.07059e-16      0.114017        102247        103179        157705   1.47868e-15
    0.0388989       288.016       288.413      0.106723      -9.91513       -9.8097             0      -4.65103      -7.56818             0       22.8107       2.28519             0       48.7685             0             0      0.203907   8.03673e-16      0.113447        102246        103179        157708   1.47248e-15
    0.0388739       288.013       288.412      0.106749      -9.92783      -9.83708             0      -4.63809      -7.57049             0       22.8382       2.18365             0       48.9565             0             0      0.204038   8.00288e-16      0.112877        102245        103179        157711   1.46628e-15
    0.0388488        288.01       288.412      0.106775      -9.94054      -9.86446             0      -4.62515      -7.57281             0       22.8656       2.08212             0       49.1445             0             0      0.204169   7.96903e-16      0.112307        102244        103179        157714   1.46008e-15
    0.0388238       288.007       288.412      0.106801      -9.95324      -9.89183             0      -4.61221      -7.57512             0       22.8931       1.98058             0       49.3325             0             0      0.204301   7.93518e-16      0.111737        102244        103179        157717   1.45387e-15
    0.0387988       288.003       288.411      0.106827      -9.96595      -9.91921             0      -4.59927      -7.57744             0       22.9206       1.87904             0       49.5205             0             0      0.204432   7.90133e-16      0.111167        102243        103178        157720   1.44767e-15
    0.0387738           288       288.411      0.106854      -9.97865      -9.94659             0      -4.58633      -7.57975             0       22.9481       1.77751             0       49.7085             0             0      0.204563   7.86747e-16      0.110598        102242        103178        157723   1.44147e-15
    0.0387487       287.997       288.411       0.10688      -9.99136      -9.97396             0      -4.57339      -7.58206             0       22.9755       1.67597             0       49.8964             0             0      0.204694   7.83362e-16      0.110028        102241        103178        157726   1.43527e-15
    0.0387237       287.994       288.411      0.106906      -10.0041      -10.0013             0      -4.56045      -7.58438             0        23.003       1.57443             0       50.0844             0             0      0.204825   7.79977e-16      0.109458        102241        103178        157729   1.42906e-15
    0.0386987       287.991        288.41      0.106932      -10.0168      -10.0287             0      -4.54751      -7.58669             0       23.0305        1.4729             0       50.2724             0             0      0.204956   7.76592e-16      0.108888        102240        103178        157732   1.42286e-15
    0.0386737       287.987        288.41      0.106958      -10.0295      -10.0561             0      -4.53457        -7.589             0       23.0579       1.37136             0       50.4604             0             0      0.205087   7.73207e-16      0.108318        102239        103177        157735   1.41666e-15
    0.0386486       287.984        288.41      0.106985      -10.0422      -10.0835             0      -4.52163      -7.59132             0       23.0854       1.26983             0       50.6484             0             0      0.205218   7.69822e-16      0.107748        102238        103177        157738   1.41046e-15
    0.0386236       287.981        288.41      0.107011      -10.0549      -10.1108             0      -4.50869      -7.59363             0       23.1129       1.16829             0       50.8364             0             0      0.205349   7.66436e-16      0.107178        102238        103177        157741   1.40425e-15
    0.0385986       287.978       288.409      0.107037      -10.0676      -10.1382             0      -4.49575      -7.59595             0       23.1404       1.06675             0       51.0244             0             0       0.20548   7.63051e-16      0.106608        102237        103177        157744   1.39805e-15
    0.0385736       287.974       288.409      0.107063      -10.0803      -10.1656             0      -4.48281      -7.59826             0       23.1678      0.965215             0       51.2124             0             0      0.205611   7.59666e-16      0.106038        102236        103176        157747   1.39185e-15
    0.0385485       287.971       288.409       0.10709       -10.093       -10.193             0      -4.46987      -7.60057             0       23.1953      0.863679             0       51.4004             0             0      0.205742   7.56281e-16      0.105468        102235        103176        157750   1.38565e-15
    0.0385235       287.968       288.408      0.107116      -10.1057      -10.2204             0      -4.45693      -7.60289             0       23.2228      0.762142             0       51.5884             0             0      0.205874   7.52896e-16      0.104898        102235        103176        157753   1.37945e-15
    0.0384985       287.965       288.408      0.107142      -10.1184      -10.2477             0      -4.44399       -7.6052             0       23.2502      0.660606             0       51.7764             0             0      0.206005   7.49511e-16      0.104328        102234        103176        157756   1.37324e-15
    0.0384735       287.962       288.408      0.107168      -10.1311      -10.2751             0      -4.43105      -7.60751             0       23.2777      0.559069             0       51.9643             0             0      0.206136   7.46125e-16      0.103758        102233        103176        157759   1.36704e-15
    0.0384484       287.958       288.408      0.107194      -10.1438      -10.3025             0      -4.41811      -7.60983             0       23.3052      0.457532             0       52.1523             0             0      0.206267    7.4274e-16      0.103188        102232        103175        157762   1.36084e-15
    0.0384234       287.955       288.407      0.107221      -10.1565      -10.3299             0      -4.40517      -7.61214             0       23.3326      0.355996             0       52.3403             0             0      0.206398   7.39355e-16      0.102618        102232        103175        157765   1.35464e-15
    0.0383984       287.952       288.407      0.107247      -10.1692      -10.3572             0      -4.39223      -7.61446             0       23.3601      0.254459             0       52.5283             0             0      0.206529    7.3597e-16      0.102048        102231        103175        157768   1.34843e-15
    0.0383734       287.949       288.407      0.107273      -10.1819      -10.3846             0      -4.37929      -7.61677             0       23.3876      0.152923             0       52.7163             0             0       0.20666   7.32585e-16      0.101478        102230        103175        157771   1.34223e-15
    0.0383483       287.946       288.406      0.107299      -10.1946       -10.412             0      -4.36635      -7.61908             0       23.4151      0.051386             0       52.9043             0             0      0.206791   7.29199e-16      0.100909        102229        103175        157773   1.33603e-15
    0.0383233       287.942       288.406      0.107325      -10.2074      -10.4394             0      -4.35341       -7.6214             0       23.4425    -0.0501506             0       53.0923             0             0      0.206922   7.25814e-16      0.100339        102229        103174        157776   1.32983e-15
    0.0382983       287.939       288.406      0.107352      -10.2201      -10.4667             0      -4.34047      -7.62371             0         23.47     -0.151687             0       53.2803             0             0      0.207053   7.22429e-16     0.0997686        102228        103174        157779   1.32363e-15
    0.0382733       287.936       288.406      0.107378      -10.2328      -10.4941             0      -4.32753      -7.62602             0       23.4975     -0.253224             0       53.4683             0             0      0.207184   7.19044e-16     0.0991987        102227        103174        157782   1.31742e-15
    0.0382482       287.933       288.405      0.107404      -10.2455      -10.5215             0      -4.31459      -7.62834             0       23.5249      -0.35476             0       53.6563             0             0      0.207315   7.15659e-16     0.0986287        102226        103174        157785   1.31122e-15
    0.0382232       287.929       288.405       0.10743      -10.2582      -10.5489             0      -4.30165      -7.63065             0       23.5524     -0.456297             0       53.8442             0             0      0.207447   7.12274e-16     0.0980588        102226        103174        157788   1.30502e-15
    0.0381982       287.926       288.405      0.107456      -10.2709      -10.5762             0      -4.28871      -7.63297             0       23.5799     -0.557834             0       54.0322             0             0      0.207578   7.08888e-16     0.0974889        102225        103173        157791   1.29882e-15
    0.0381732       287.923       288.404      0.107483      -10.2836      -10.6036             0      -4.27577      -7.63528             0       23.6074      -0.65937             0       54.2202             0             0      0.207709   7.05503e-16     0.0969189        102224        103173        157794   1.29261e-15
    0.0381481        287.92       288.404      0.107509      -10.2963       -10.631             0      -4.26283      -7.63759             0       23.6348     -0.760907             0       54.4082             0             0       0.20784   7.02118e-16      0.096349        102223        103173        157797   1.28641e-15
    0.0381231       287.917       288.404      0.107535       -10.309      -10.6584             0      -4.24989      -7.63991             0       23.6623     -0.862443             0       54.5962             0             0      0.207971   6.98733e-16      0.095779        102222        103173        157800   1.28021e-15
    0.0380981       287.913       288.404      0.107561      -10.3217      -10.6858             0      -4.23695      -7.64222             0       23.6898      -0.96398             0       54.7842             0             0      0.208102   6.95348e-16     0.0952091        102222        103173        157803   1.27401e-15
    0.0380731        287.91       288.403      0.107587      -10.3344      -10.7131             0      -4.22401      -7.64453             0       23.7172      -1.06552             0       54.9722             0             0      0.208233   6.91963e-16     0.0946392        102221        103172        157806    1.2678e-15
     0.038048       287.907       288.403      0.107614      -10.3471      -10.7405             0      -4.21107      -7.64685             0       23.7447      -1.16705             0       55.1602             0             0      0.208364   6.88577e-16     0.0940692        102220        103172        157809    1.2616e-15
     0.038023       287.904       288.403       0.10764      -10.3598      -10.7679             0      -4.19813      -7.64916             0       23.7722      -1.26859             0       55.3482             0             0      0.208495   6.85192e-16     0.0934993        102219        103172        157812    1.2554e-15
     0.037998       287.901       288.402      0.107663      -10.3724      -10.7952             0       -4.1847      -7.65114             0       23.7974      -1.36835             0       55.5362             0             0      0.208626   6.81849e-16     0.0929319        102219        103172        157815   1.24927e-15
     0.037973       287.898       288.402      0.107646      -10.3837      -10.8225             0      -4.16565      -7.64926             0       23.7962      -1.44767             0       55.7249             0             0      0.208749   6.78983e-16     0.0923936        102218        103172        157823   1.24402e-15
    0.0379479       287.896       288.402       0.10763      -10.3951      -10.8498             0       -4.1466      -7.64737             0       23.7951        -1.527             0       55.9135             0             0      0.208873   6.76117e-16     0.0918552        102217        103171        157832   1.23877e-15
    0.0379229       287.894       288.402      0.107614      -10.4064       -10.877             0      -4.12755      -7.64549             0       23.7939      -1.60632             0       56.1022             0             0      0.208997   6.73252e-16     0.0913169        102216        103171        157840   1.23352e-15
    0.0378979       287.891       288.402      0.107598      -10.4177      -10.9043             0      -4.10849      -7.64361             0       23.7928      -1.68565             0       56.2909             0             0      0.209121   6.70386e-16     0.0907786        102215        103171        157848   1.22827e-15
    0.0378729       287.889       288.401      0.107581       -10.429      -10.9316             0      -4.08944      -7.64172             0       23.7916      -1.76497             0       56.4795             0             0      0.209245   6.67521e-16     0.0902403        102214        103171        157856   1.22302e-15
    0.0378478       287.887       288.401      0.107565      -10.4403      -10.9588             0      -4.07039      -7.63984             0       23.7905       -1.8443             0       56.6682             0             0      0.209369   6.64655e-16      0.089702        102213        103171        157864   1.21777e-15
    0.0378228       287.884       288.401      0.107549      -10.4517      -10.9861             0      -4.05134      -7.63796             0       23.7893      -1.92362             0       56.8569             0             0      0.209492    6.6179e-16     0.0891637        102212        103171        157872   1.21252e-15
    0.0377978       287.882       288.401      0.107532       -10.463      -11.0134             0      -4.03229      -7.63607             0       23.7881      -2.00294             0       57.0455             0             0      0.209616   6.58924e-16     0.0886254        102212        103170        157880   1.20727e-15
    0.0377728        287.88         288.4      0.107516      -10.4743      -11.0406             0      -4.01324      -7.63419             0        23.787      -2.08227             0       57.2342             0             0       0.20974   6.56059e-16     0.0880871        102211        103170        157888   1.20202e-15
    0.0377477       287.877         288.4        0.1075      -10.4856      -11.0679             0      -3.99419      -7.63231             0       23.7858      -2.16159             0       57.4228             0             0      0.209864   6.53193e-16     0.0875488        102210        103170        157896   1.19677e-15
    0.0377227       287.875         288.4      0.107484      -10.4969      -11.0951             0      -3.97514      -7.63042             0       23.7847      -2.24092             0       57.6115             0             0      0.209988   6.50327e-16     0.0870105        102209        103170        157904   1.19152e-15