#           y             T         TMean   TPrime2Mean           U_x           U_y           U_z       UMean_x       UMean_y       UMean_z UPrime2Mea... UPrime2Mea... UPrime2Mea... UPrime2Mea... UPrime2Mea... UPrime2Mea...            O2           H2O          C3H8             p         pMean   pPrime2Mean           CO2
         0.03       287.992       288.617      0.299708       1.05163      -9.74657             0       3.41402       2.61088             0       19.7422        0.1524             0       33.7176             0             0      0.210538   8.58753e-16     0.0846174        102079        103244        189040    1.5734e-15
    0.0301702       287.993       288.615      0.296723      0.574459      -9.67128             0        3.4079        2.6488             0       19.7701     -0.234769             0       33.6061             0             0      0.210437   8.60332e-16     0.0850588        102082        103244        188656   1.57629e-15
    0.0303403       287.995       288.613      0.293738     0.0972912      -9.59599             0       3.40178       2.68672             0       19.7979     -0.621938             0       33.4946             0             0      0.210335   8.61911e-16     0.0855001        102085        103244        188272   1.57918e-15
    0.0305105       287.996       288.612      0.290753     -0.379877      -9.52069             0       3.39566       2.72464             0       19.8258      -1.00911             0       33.3831             0             0      0.210234   8.63489e-16     0.0859414        102088        103244        187888   1.58207e-15
    0.0306807       287.998        288.61      0.287768     -0.857044       -9.4454             0       3.38954       2.76257             0       19.8537      -1.39628             0       33.2716             0             0      0.210132   8.65068e-16     0.0863827        102091        103244        187503   1.58497e-15
    0.0308509       287.999       288.608      0.284783      -1.33421       -9.3701             0       3.38342       2.80049             0       19.8815      -1.78345             0       33.1601             0             0      0.210031   8.66647e-16     0.0868241        102094        103245        187119   1.58786e-15
     0.031021       288.001       288.606      0.281944      -1.80808      -9.29261             0       3.37968       2.83861             0       19.9242      -2.16679             0       33.0408             0             0       0.20993   8.68266e-16     0.0872614        102097        103245        186728   1.59083e-15
    0.0311912       287.999       288.603      0.280142      -2.25855      -9.19953             0       3.39289       2.87817             0       20.0721      -2.52298             0       32.8664             0             0      0.209836   8.70169e-16     0.0876707        102100        103245        186289   1.59431e-15
    0.0313614       287.997       288.601      0.278341      -2.70902      -9.10645             0       3.40609       2.91773             0       20.2199      -2.87917             0        32.692             0             0      0.209742   8.72073e-16       0.08808        102103        103246        185850    1.5978e-15
    0.0315315       287.995       288.598       0.27654      -3.15949      -9.01337             0       3.41929       2.95729             0       20.3677      -3.23535             0       32.5176             0             0      0.209648   8.73976e-16     0.0884893        102107        103246        185411   1.60129e-15
    0.0317017       287.993       288.596      0.274738      -3.60997      -8.92029             0        3.4325       2.99685             0       20.5155      -3.59154             0       32.3431             0             0      0.209553   8.75879e-16     0.0888986        102110        103246        184973   1.60477e-15
    0.0318719       287.991       288.593      0.272937      -4.06044      -8.82721             0        3.4457       3.03642             0       20.6633      -3.94773             0       32.1687             0             0      0.209459   8.77783e-16      0.089308        102113        103247        184534   1.60826e-15
     0.032042       287.987       288.591      0.271476      -4.51288      -8.73517             0       3.46238       3.07567             0       20.8491      -4.28386             0       31.9849             0             0      0.209369   8.79739e-16     0.0897022        102117        103247        184093   1.61185e-15
    0.0322122       287.978       288.588      0.271052      -4.97131      -8.64631             0       3.48966       3.11401             0       21.1506      -4.55884             0       31.7723             0             0      0.209289   8.81858e-16     0.0900503        102121        103248        183645   1.61573e-15
    0.0323824       287.969       288.586      0.270628      -5.42975      -8.55746             0       3.51695       3.15234             0       21.4521      -4.83381             0       31.5597             0             0      0.209208   8.83977e-16     0.0903985        102124        103248        183197   1.61961e-15
    0.0325526        287.96       288.583      0.270204      -5.88819       -8.4686             0       3.54423       3.19068             0       21.7537      -5.10879             0       31.3471             0             0      0.209128   8.86095e-16     0.0907467        102128        103249        182750   1.62349e-15
    0.0327227       287.951        288.58       0.26978      -6.34663      -8.37974             0       3.57151       3.22902             0       22.0552      -5.38377             0       31.1345             0             0      0.209048   8.88214e-16     0.0910948        102132        103249        182302   1.62737e-15
    0.0328929       287.942       288.578      0.269357      -6.80507      -8.29089             0       3.59879       3.26735             0       22.3567      -5.65875             0       30.9219             0             0      0.208968   8.90333e-16      0.091443        102136        103250        181854   1.63125e-15
    0.0330631       287.931       288.575      0.269367      -7.27218      -8.21178             0       3.62827       3.30446             0       22.7578      -5.89237             0       30.7041             0             0      0.208845   8.92555e-16     0.0919805        102139        103250        181411   1.63533e-15
    0.0332332       287.916       288.573      0.270115      -7.75403      -8.14925             0       3.66149       3.33948             0        23.328      -6.05577             0       30.4774             0             0      0.208647   8.94955e-16     0.0928396        102144        103251        180973   1.63972e-15
    0.0334034       287.901        288.57      0.270863      -8.23587      -8.08672             0        3.6947        3.3745             0       23.8983      -6.21916             0       30.2508             0             0      0.208449   8.97355e-16     0.0936987        102148        103252        180535   1.64412e-15
    0.0335736       287.886       288.567      0.271611      -8.71772      -8.02418             0       3.72792       3.40952             0       24.4685      -6.38256             0       30.0241             0             0      0.208252   8.99755e-16     0.0945578        102152        103252        180098   1.64852e-15
    0.0337437       287.871       288.565      0.272359      -9.19956      -7.96165             0       3.76113       3.44454             0       25.0388      -6.54595             0       29.7974             0             0      0.208054   9.02155e-16     0.0954169        102156        103253        179660   1.65292e-15
    0.0339139       287.857       288.562      0.273107      -9.68141      -7.89911             0       3.79434       3.47955             0        25.609      -6.70935             0       29.5707             0             0      0.207857   9.04555e-16      0.096276        102160        103253        179222   1.65732e-15
    0.0340841       287.844       288.559      0.274251      -10.1581      -7.84816             0       3.82857       3.51175             0       26.3319      -6.80957             0       29.3405             0             0      0.207582     9.067e-16     0.0974681        102164        103254        178786   1.66124e-15
    0.0342543       287.833       288.557        0.2758      -10.6295      -7.80907             0       3.86383       3.54105             0        27.211      -6.84513             0       29.1068             0             0       0.20723   9.08583e-16     0.0990011        102168        103255        178351   1.66469e-15
    0.0344244       287.822       288.555       0.27735      -11.1008      -7.76997             0        3.8991       3.57035             0       28.0902      -6.88068             0        28.873             0             0      0.206877   9.10466e-16      0.100534        102172        103256        177917   1.66814e-15
    0.0345946       287.811       288.552        0.2789      -11.5722      -7.73088             0       3.93436       3.59965             0       28.9694      -6.91624             0       28.6392             0             0      0.206525   9.12349e-16      0.102067        102177        103257        177482    1.6716e-15
    0.0347648         287.8        288.55      0.280449      -12.0436      -7.69179             0       3.96963       3.62895             0       29.8485      -6.95179             0       28.4055             0             0      0.206172   9.14232e-16        0.1036        102181        103257        177047   1.67505e-15
    0.0349349       287.789       288.547      0.281999       -12.515      -7.65269             0       4.00489       3.65825             0       30.7277      -6.98735             0       28.1717             0             0       0.20582   9.16115e-16      0.105133        102185        103258        176613    1.6785e-15
    0.0351051       287.786       288.545      0.283484      -12.9275      -7.61721             0       4.04139       3.68305             0       31.7354      -6.96148             0       27.9309             0             0      0.205417   9.17306e-16      0.106882        102190        103259        176180   1.68068e-15
    0.0352753       287.787       288.544      0.284929      -13.3037      -7.58397             0       4.07866       3.70508             0       32.8226      -6.89759             0       27.6856             0             0      0.204985   9.18069e-16      0.108763        102194        103260        175748   1.68208e-15
    0.0354454       287.789       288.542      0.286375      -13.6799      -7.55073             0       4.11592       3.72711             0       33.9099      -6.83369             0       27.4404             0             0      0.204552   9.18832e-16      0.110645        102199        103261        175316   1.68347e-15
    0.0356156       287.791        288.54       0.28782       -14.056      -7.51749             0       4.15319       3.74913             0       34.9971       -6.7698             0       27.1952             0             0      0.204119   9.19595e-16      0.112527        102203        103262        174885   1.68487e-15
    0.0357858       287.792       288.539      0.289265      -14.4322      -7.48425             0       4.19045       3.77116             0       36.0843      -6.70591             0       26.9499             0             0      0.203686   9.20358e-16      0.114408        102208        103263        174453   1.68627e-15
     0.035956       287.794       288.537       0.29071      -14.8083        -7.451             0       4.22772       3.79318             0       37.1716      -6.64202             0       26.7047             0             0      0.203253   9.21121e-16       0.11629        102212        103264        174021   1.68767e-15
    0.0361261       287.812       288.536       0.29111      -15.0683      -7.41321             0       4.26616        3.8093             0       38.3162      -6.55348             0       26.4506             0             0      0.202536   9.20627e-16      0.119408        102216        103265        173599   1.68676e-15
    0.0362963       287.837       288.536      0.291145      -15.2876      -7.37382             0       4.30502       3.82335             0       39.4808      -6.45635             0       26.1933             0             0       0.20172   9.19693e-16      0.122958        102221        103266        173180   1.68505e-15
    0.0364665       287.861       288.535      0.291179      -15.5069      -7.33444             0       4.34388       3.83741             0       40.6455      -6.35921             0       25.9361             0             0      0.200903   9.18759e-16      0.126507        102225        103267        172761   1.68334e-15
    0.0366366       287.885       288.534      0.291214      -15.7262      -7.29505             0       4.38273       3.85146             0       41.8101      -6.26207             0       25.6788             0             0      0.200087   9.17826e-16      0.130057        102229        103268        172342   1.68163e-15
    0.0368068        287.91       288.534      0.291248      -15.9455      -7.25566             0       4.42159       3.86551             0       42.9747      -6.16493             0       25.4216             0             0      0.199271   9.16892e-16      0.133606        102234        103269        171923   1.67992e-15
     0.036977       287.934       288.533      0.291283      -16.1648      -7.21628             0       4.46045       3.87956             0       44.1394      -6.06779             0       25.1643             0             0      0.198454   9.15958e-16      0.137156        102238        103270        171504   1.67821e-15
    0.0371471       287.976       288.533      0.289303      -16.1974      -7.18465             0       4.50124       3.88518             0       45.2357      -5.96254             0       24.8862             0             0      0.197489   9.13289e-16      0.141353        102242        103272        171107   1.67332e-15
    0.0373173       288.019       288.533      0.287008      -16.2008      -7.15423             0       4.54234       3.88948             0       46.3213      -5.85602             0       24.6049             0             0        0.1965   9.10348e-16      0.145652        102246        103273        170714   1.66793e-15
    0.0374875       288.063       288.533      0.284713      -16.2042      -7.12381             0       4.58345       3.89379             0       47.4069       -5.7495             0       24.3235             0             0      0.195511   9.07407e-16      0.149951        102250        103274        170322   1.66254e-15
    0.0376577       288.107       288.534      0.282418      -16.2076      -7.09339             0       4.62455       3.89809             0       48.4925      -5.64298             0       24.0422             0             0      0.194523   9.04466e-16       0.15425        102254        103275        169929   1.65715e-15
    0.0378278       288.151       288.534      0.280123       -16.211      -7.06297             0       4.66565       3.90239             0       49.5781      -5.53646             0       23.7608             0             0      0.193534   9.01525e-16      0.158549        102258        103277        169536   1.65176e-15
     0.037998       288.195       288.534      0.277828      -16.2144      -7.03255             0       4.70675       3.90669             0       50.6637      -5.42994             0       23.4795             0             0      0.192545   8.98584e-16      0.162847        102262        103278        169143   1.64637e-15
    0.0381682       288.226       288.535      0.273275      -15.9812      -7.03436             0       4.75262        3.8993             0       51.4865        -5.278             0       23.1524             0             0      0.192077   8.95845e-16      0.164882        102266        103279        168794   1.64136e-15
    0.0383383       288.256       288.535      0.268696      -15.7453      -7.03655             0       4.79854       3.89177             0       52.3063      -5.12552             0       22.8249             0             0      0.191616   8.93109e-16      0.166889        102269        103280        168446   1.63634e-15
    0.0385085       288.286       288.536      0.264117      -15.5093      -7.03875             0       4.84447       3.88424             0        53.126      -4.97304             0       22.4973             0             0      0.191154   8.90373e-16      0.168896        102273        103282        168098   1.63133e-15
    0.0386787       288.317       288.536      0.259538      -15.2733      -7.04094             0        4.8904       3.87672             0       53.9457      -4.82056             0       22.1697             0             0      0.190692   8.87637e-16      0.170903        102277        103283        167751   1.62632e-15
    0.0388488       288.347       288.537      0.254959      -15.0373      -7.04313             0       4.93632       3.86919             0       54.7655      -4.66807             0       21.8421             0             0      0.190231   8.84901e-16       0.17291        102280        103284        167403    1.6213e-15
     0.039019       288.374       288.537      0.250248      -14.7883      -7.04917             0       4.98272       3.86027             0       55.5463      -4.50653             0       21.5086             0             0      0.189825   8.82401e-16      0.174672        102284        103286        167062   1.61672e-15
    0.0391892       288.379       288.537      0.244481      -14.4356      -7.08574             0       5.03288       3.84029             0       56.0178      -4.27292             0       21.1277             0             0      0.189869   8.81776e-16      0.174481        102287        103287        166778   1.61558e-15
    0.0393594       288.384       288.538      0.238714       -14.083       -7.1223             0       5.08305        3.8203             0       56.4893      -4.03931             0       20.7468             0             0      0.189913   8.81151e-16      0.174289        102290        103288        166493   1.61443e-15
    0.0395295        288.39       288.538      0.232948      -13.7303      -7.15887             0       5.13322       3.80032             0       56.9607       -3.8057             0       20.3659             0             0      0.189957   8.80525e-16      0.174098        102294        103290        166209   1.61329e-15
    0.0396997       288.395       288.538      0.227181      -13.3776      -7.19543             0       5.18338       3.78033             0       57.4322      -3.57209             0        19.985             0             0      0.190001     8.799e-16      0.173906        102297        103291        165925   1.61214e-15
    0.0398699         288.4       288.538      0.221415       -13.025        -7.232             0       5.23355       3.76035             0       57.9037      -3.33848             0       19.6041             0             0      0.190045   8.79275e-16      0.173715        102300        103292        165640   1.61099e-15
      0.04004         288.4       288.538      0.215808      -12.6827      -7.27046             0       5.28384       3.73795             0       58.3081      -3.08954             0       19.2164             0             0      0.190215   8.79287e-16      0.172977        102303        103294        165373   1.61102e-15
    0.0402102       288.383       288.538      0.210719      -12.3744      -7.31505             0       5.33458       3.70771             0       58.4944      -2.79077             0       18.8065             0             0      0.190794   8.81369e-16      0.170462        102306        103295        165161   1.61483e-15
    0.0403804       288.367       288.538      0.205631       -12.066      -7.35965             0       5.38531       3.67747             0       58.6807      -2.49201             0       18.3967             0             0      0.191372   8.83451e-16      0.167947        102309        103297        164949   1.61865e-15
    0.0405506        288.35       288.538      0.200543      -11.7577      -7.40425             0       5.43604       3.64723             0        58.867      -2.19325             0       17.9869             0             0      0.191951   8.85534e-16      0.165432        102312        103298        164737   1.62246e-15
    0.0407207       288.334       288.537      0.195454      -11.4494      -7.44885             0       5.48678       3.61699             0       59.0533      -1.89448             0        17.577             0             0      0.192529   8.87616e-16      0.162917        102315        103299        164525   1.62628e-15
    0.0408909       288.317       288.537      0.190366       -11.141      -7.49345             0       5.53751       3.58676             0       59.2396      -1.59572             0       17.1672             0             0      0.193108   8.89698e-16      0.160402        102318        103301        164313   1.63009e-15
    0.0410611       288.298       288.537      0.185837      -10.8748      -7.52026             0       5.58691       3.55407             0       59.3736      -1.29721             0       16.7595             0             0      0.193742   8.92495e-16      0.157645        102321        103302        164126   1.63522e-15
    0.0412312       288.273       288.536      0.182309      -10.6837       -7.5153             0       5.63394       3.51703             0        59.414     -0.999164             0       16.3557             0             0      0.194475   8.96568e-16      0.154455        102324        103304        163986   1.64268e-15
    0.0414014       288.249       288.535      0.178781      -10.4926      -7.51034             0       5.68097       3.47998             0       59.4544     -0.701117             0        15.952             0             0      0.195209   9.00641e-16      0.151265        102327        103305        163845   1.65014e-15
    0.0415716       288.224       288.534      0.175253      -10.3016      -7.50538             0       5.72799       3.44294             0       59.4948      -0.40307             0       15.5482             0             0      0.195943   9.04714e-16      0.148076        102330        103307        163705    1.6576e-15
    0.0417417         288.2       288.533      0.171725      -10.1105      -7.50042             0       5.77502       3.40589             0       59.5352     -0.105024             0       15.1445             0             0      0.196676   9.08787e-16      0.144886        102332        103308        163564   1.66507e-15
    0.0419119       288.175       288.532      0.168197      -9.91944      -7.49546             0       5.82205       3.36885             0       59.5756      0.193023             0       14.7407             0             0       0.19741    9.1286e-16      0.141696        102335        103310        163424   1.67253e-15
    0.0420821       288.155       288.531      0.165573      -9.78009      -7.44398             0       5.86383       3.32966             0       59.6119      0.456469             0       14.3472             0             0      0.197961   9.16869e-16      0.139302        102338        103311        163312   1.67988e-15
    0.0422523       288.141       288.529      0.163919      -9.69626      -7.34258             0       5.89997       3.28818             0       59.6438      0.682783             0       13.9647             0             0      0.198315    9.2081e-16      0.137761        102341        103312        163233    1.6871e-15
    0.0424224       288.127       288.527      0.162264      -9.61242      -7.24118             0       5.93612       3.24669             0       59.6758      0.909097             0       13.5822             0             0      0.198669   9.24751e-16       0.13622        102343        103314        163153   1.69432e-15
    0.0425926       288.112       288.525       0.16061      -9.52859      -7.13979             0       5.97227       3.20521             0       59.7077       1.13541             0       13.1997             0             0      0.199024   9.28692e-16      0.134679        102346        103315        163073   1.70154e-15
    0.0427628       288.098       288.523      0.158955      -9.44475      -7.03839             0       6.00841       3.16372             0       59.7396       1.36172             0       12.8172             0             0      0.199378   9.32633e-16      0.133138        102349        103317        162993   1.70876e-15
    0.0429329       288.084       288.521      0.157301      -9.36091      -6.93699             0       6.04456       3.12224             0       59.7715       1.58804             0       12.4347             0             0      0.199733   9.36574e-16      0.131597        102352        103318        162913   1.71598e-15
    0.0431031       288.074       288.518      0.156864      -9.29983      -6.78171             0       6.06978       3.07808             0       59.7712       1.75577             0       12.0517             0             0      0.199951   9.40114e-16      0.130647        102355        103319        162863   1.72246e-15
    0.0432733       288.066       288.515       0.15722      -9.25354      -6.59136             0       6.08788       3.03218             0       59.7499        1.8854             0       11.6683             0             0      0.200081   9.43395e-16      0.130082        102357        103321        162833   1.72847e-15
    0.0434434       288.059       288.512      0.157575      -9.20725      -6.40102             0       6.10599       2.98628             0       59.7286       2.01503             0       11.2849             0             0      0.200211   9.46675e-16      0.129517        102360        103322        162802   1.73449e-15
    0.0436136       288.052       288.508      0.157931      -9.16096      -6.21067             0        6.1241       2.94038             0       59.7073       2.14466             0       10.9015             0             0      0.200341   9.49956e-16      0.128952        102363        103323        162772    1.7405e-15
    0.0437838       288.044       288.505      0.158287      -9.11468      -6.02033             0       6.14221       2.89448             0        59.686       2.27428             0       10.5181             0             0      0.200471   9.53237e-16      0.128387        102366        103325        162742   1.74651e-15
     0.043954       288.037       288.502      0.158642      -9.06839      -5.82998             0       6.16031       2.84859             0       59.6646       2.40391             0       10.1347             0             0      0.200601   9.56517e-16      0.127822        102368        103326        162711   1.75252e-15
    0.0441241       288.031       288.498      0.159946      -9.01303      -5.61899             0       6.16512       2.79634             0       59.4548       2.47174             0       9.74313             0             0      0.200657   9.59887e-16      0.127576        102371        103327        162718   1.75869e-15
    0.0442943       288.026       288.494      0.161602       -8.9543      -5.40033             0       6.16498       2.74174             0        59.175       2.51664             0       9.34854             0             0      0.200687   9.63289e-16      0.127447        102373        103329        162738   1.76492e-15
    0.0444645       288.022       288.489      0.163257      -8.89557      -5.18168             0       6.16485       2.68714             0       58.8952       2.56155             0       8.95396             0             0      0.200717   9.66692e-16      0.127318        102375        103330        162758   1.77116e-15
    0.0446346       288.017       288.485      0.164913      -8.83685      -4.96302             0       6.16472       2.63254             0       58.6154       2.60645             0       8.55937             0             0      0.200746   9.70094e-16      0.127189        102377        103331        162778   1.77739e-15
    0.0448048       288.012        288.48      0.166569      -8.77812      -4.74437             0       6.16459       2.57793             0       58.3356       2.65135             0       8.16479             0             0      0.200776   9.73497e-16       0.12706        102379        103333        162798   1.78363e-15
     0.044975       288.007       288.476      0.168224      -8.71939      -4.52571             0       6.16445       2.52333             0       58.0557       2.69625             0        7.7702             0             0      0.200806     9.769e-16      0.126931        102381        103334        162818   1.78986e-15
    0.0451451       288.003       288.471      0.170097      -8.67527      -4.32304             0       6.15009       2.45699             0       57.4802       2.67329             0       7.38432             0             0      0.200699   9.81865e-16      0.127395        102383        103335        162881   1.79896e-15
    0.0453153       287.999       288.465      0.172008      -8.63368      -4.12312             0       6.13327       2.38863             0       56.8538       2.63862             0       6.99994             0             0      0.200569     9.871e-16      0.127961        102385        103336        162950   1.80855e-15
    0.0454855       287.995        288.46      0.173919      -8.59208      -3.92321             0       6.11644       2.32026             0       56.2273       2.60395             0       6.61556             0             0      0.200439   9.92335e-16      0.128527        102386        103338        163020   1.81814e-15