#           y             T         TMean   TPrime2Mean           U_x           U_y           U_z       UMean_x       UMean_y       UMean_z UPrime2Mea... UPrime2Mea... UPrime2Mea... UPrime2Mea... UPrime2Mea... UPrime2Mea...            O2           H2O          C3H8             p         pMean   pPrime2Mean           CO2
         0.02       287.592       288.113      0.153635       29.4445       1.92209             0       21.3107     -0.655112             0       43.3444      -2.07473             0       20.8213             0             0      0.222805   5.21365e-17     0.0312799        102432        103227        105449    9.5524e-17
    0.0201677         287.6        288.11      0.149202       29.4755       1.83502             0       21.3374     -0.627561             0        43.265      -1.24983             0       21.1769             0             0      0.223578   6.20412e-17     0.0279232        102425        103227        105919   1.13671e-16
    0.0203353       287.609       288.108      0.144769       29.5064       1.74795             0       21.3642     -0.600011             0       43.1857     -0.424925             0       21.5324             0             0       0.22435   7.19459e-17     0.0245664        102419        103226        106388   1.31819e-16
     0.020503       287.617       288.105      0.140336       29.5374       1.66088             0       21.3909     -0.572461             0       43.1064      0.399979             0       21.8879             0             0      0.225122   8.18506e-17     0.0212097        102412        103226        106857   1.49966e-16
    0.0206707       287.625       288.103      0.135903       29.5683       1.57381             0       21.4177      -0.54491             0        43.027       1.22488             0       22.2434             0             0      0.225894   9.17553e-17      0.017853        102405        103225        107327   1.68113e-16
    0.0208383       287.634         288.1      0.131471       29.5993       1.48674             0       21.4444      -0.51736             0       42.9477       2.04979             0        22.599             0             0      0.226666    1.0166e-16     0.0144963        102398        103225        107796    1.8626e-16
     0.021006       287.642       288.098      0.127064       29.6206       1.39919             0       21.4657     -0.489454             0       42.8734       2.87853             0       22.9567             0             0      0.227402   1.11989e-16     0.0112962        102391        103224        108268   2.05185e-16
    0.0211737       287.653         288.1      0.123351       29.3823       1.29891             0       21.3394     -0.451977             0       42.9327       3.81057             0       23.3753             0             0      0.227168   1.33744e-16     0.0123125        102384        103224        108812   2.45045e-16
    0.0213413       287.664       288.103      0.119638       29.1441       1.19862             0       21.2131     -0.414499             0       42.9921       4.74262             0       23.7938             0             0      0.226934   1.55499e-16     0.0133287        102377        103223        109356   2.84904e-16
     0.021509       287.674       288.105      0.115926       28.9059       1.09834             0       21.0868     -0.377021             0       43.0515       5.67466             0       24.2123             0             0      0.226701   1.77254e-16     0.0143449        102369        103222        109900   3.24763e-16
    0.0216767       287.685       288.108      0.112213       28.6677      0.998052             0       20.9605     -0.339543             0       43.1108       6.60671             0       24.6308             0             0      0.226467   1.99009e-16     0.0153611        102362        103222        110444   3.64622e-16
    0.0218443       287.696        288.11      0.108501       28.4295      0.897767             0       20.8342     -0.302066             0       43.1702       7.53875             0       25.0493             0             0      0.226233   2.20764e-16     0.0163773        102354        103221        110989   4.04482e-16
     0.022012       287.706       288.113      0.104901       28.1796      0.796107             0       20.6969     -0.265933             0       43.2152       8.46505             0       25.4726             0             0      0.225985   2.42688e-16     0.0174556        102347        103221        111539    4.4465e-16
    0.0221797       287.715       288.119      0.102763       27.7787      0.676638             0       20.4169     -0.247237             0       43.0739       9.31693             0       25.9578             0             0      0.225552   2.66794e-16     0.0193382        102340        103220        112167   4.88817e-16
    0.0223473       287.725       288.126      0.100626       27.3778      0.557168             0       20.1368     -0.228541             0       42.9326       10.1688             0        26.443             0             0      0.225119   2.90901e-16     0.0212208        102332        103220        112795   5.32985e-16
     0.022515       287.734       288.133     0.0984882       26.9769      0.437698             0       19.8568     -0.209845             0       42.7913       11.0207             0       26.9282             0             0      0.224686   3.15007e-16     0.0231034        102325        103219        113424   5.77152e-16
    0.0226827       287.743       288.139     0.0963507        26.576      0.318229             0       19.5767     -0.191148             0         42.65       11.8726             0       27.4134             0             0      0.224253   3.39114e-16     0.0249861        102318        103218        114052    6.2132e-16
    0.0228504       287.752       288.146     0.0942132       26.1751      0.198759             0       19.2967     -0.172452             0       42.5087       12.7244             0       27.8987             0             0       0.22382    3.6322e-16     0.0268687        102311        103218        114680   6.65487e-16
     0.023018       287.761       288.153     0.0922888       25.7942     0.0821081             0       19.0037     -0.157343             0       42.3256         13.55             0       28.4059             0             0      0.223404   3.86058e-16     0.0286802        102304        103217        115313   7.07331e-16
    0.0231857       287.764       288.163     0.0921344       25.5796    -0.0111351             0       18.6037     -0.172028             0       41.7954       14.1567             0       29.0956             0             0      0.223123   3.98362e-16      0.029901        102297        103217        115987   7.29873e-16
    0.0233534       287.767       288.173     0.0919799       25.3649     -0.104378             0       18.2038     -0.186713             0       41.2651       14.7634             0       29.7854             0             0      0.222842   4.10665e-16     0.0311217        102290        103216        116661   7.52415e-16
     0.023521       287.771       288.183     0.0918255       25.1503     -0.197621             0       17.8038     -0.201397             0       40.7349       15.3702             0       30.4752             0             0      0.222561   4.22969e-16     0.0323424        102283        103216        117335   7.74957e-16
    0.0236887       287.774       288.193     0.0916711       24.9356     -0.290865             0       17.4038     -0.216082             0       40.2046       15.9769             0        31.165             0             0       0.22228   4.35272e-16     0.0335632        102276        103215        118009   7.97499e-16
    0.0238564       287.778       288.203     0.0915167        24.721     -0.384108             0       17.0038     -0.230767             0       39.6744       16.5836             0       31.8548             0             0         0.222   4.47575e-16     0.0347839        102269        103214        118683   8.20041e-16
     0.024024       287.781       288.213     0.0915493       24.5223     -0.478316             0       16.6042     -0.251356             0       39.1926       17.1408             0       32.5789             0             0      0.221749   4.58199e-16      0.035872        102262        103214        119368   8.39506e-16
    0.0241917       287.779       288.224     0.0926995       24.4187     -0.578292             0       16.2065     -0.307249             0       39.0004       17.4014             0       33.5084             0             0      0.221682   4.58779e-16      0.036167        102254        103213        120119   8.40569e-16
    0.0243594       287.778       288.235     0.0938498       24.3151     -0.678268             0       15.8089     -0.363142             0       38.8082       17.6621             0       34.4378             0             0      0.221614    4.5936e-16      0.036462        102246        103213        120869   8.41633e-16
     0.024527       287.776       288.246         0.095       24.2115     -0.778245             0       15.4113     -0.419035             0       38.6159       17.9228             0       35.3673             0             0      0.221546    4.5994e-16     0.0367571        102238        103212        121620   8.42696e-16
    0.0246947       287.775       288.256     0.0961503        24.108     -0.878221             0       15.0137     -0.474928             0       38.4237       18.1835             0       36.2967             0             0      0.221478    4.6052e-16     0.0370521        102230        103211        122371   8.43759e-16
    0.0248624       287.773       288.267     0.0973006       24.0044     -0.978198             0        14.616     -0.530821             0       38.2315       18.4442             0       37.2262             0             0       0.22141   4.61101e-16     0.0373471        102222        103211        123121   8.44823e-16
      0.02503       287.772       288.278     0.0984727       23.8696       -1.0836             0       14.2381     -0.592529             0       38.0634       18.6741             0       38.1981             0             0      0.221361   4.61199e-16     0.0375619        102214        103210        123905   8.45003e-16
    0.0251977        287.77       288.286     0.0997452       23.5918      -1.21386             0       13.9503     -0.680891             0       38.0063       18.7629             0       39.3648             0             0      0.221396   4.59089e-16     0.0374093        102205        103209        124839   8.41136e-16
    0.0253654       287.768       288.295      0.101018       23.3139      -1.34412             0       13.6625     -0.769253             0       37.9492       18.8517             0       40.5314             0             0      0.221431   4.56978e-16     0.0372567        102196        103208        125774    8.3727e-16
     0.025533       287.766       288.304       0.10229       23.0361      -1.47437             0       13.3747     -0.857615             0       37.8921       18.9405             0       41.6981             0             0      0.221466   4.54868e-16     0.0371041        102188        103207        126708   8.33403e-16
    0.0257007       287.765       288.312      0.103563       22.7583      -1.60463             0       13.0869     -0.945978             0        37.835       19.0293             0       42.8647             0             0      0.221501   4.52758e-16     0.0369514        102179        103206        127643   8.29536e-16
    0.0258684       287.763       288.321      0.104835       22.4805      -1.73489             0       12.7991      -1.03434             0       37.7778       19.1181             0       44.0314             0             0      0.221536   4.50647e-16     0.0367988        102170        103205        128577    8.2567e-16
     0.026036       287.762       288.328      0.105969       22.1807       -1.8761             0       12.5266      -1.12676             0       37.6059       19.1783             0       45.2448             0             0      0.221581   4.48895e-16     0.0366053        102161        103203        129556    8.2246e-16
    0.0262037       287.764       288.332      0.106597       21.8011      -2.05733             0         12.31        -1.234             0       37.0143       19.1341             0       46.6289             0             0       0.22166   4.48453e-16     0.0362625        102153        103202        130697    8.2165e-16
    0.0263714       287.767       288.336      0.107226       21.4214      -2.23855             0       12.0934      -1.34125             0       36.4227         19.09             0        48.013             0             0      0.221739   4.48011e-16     0.0359197        102144        103201        131839    8.2084e-16
     0.026539        287.77        288.34      0.107854       21.0417      -2.41977             0       11.8768      -1.44849             0       35.8311       19.0458             0       49.3971             0             0      0.221817   4.47569e-16      0.035577        102135        103199        132981   8.20029e-16
    0.0267067       287.772       288.344      0.108483        20.662        -2.601             0       11.6602      -1.55573             0       35.2395       19.0016             0       50.7812             0             0      0.221896   4.47126e-16     0.0352342        102126        103198        134122   8.19219e-16
    0.0268744       287.775       288.348      0.109111       20.2824      -2.78222             0       11.4435      -1.66297             0       34.6479       18.9574             0       52.1653             0             0      0.221975   4.46684e-16     0.0348914        102118        103196        135264   8.18409e-16
     0.027042       287.779       288.352      0.109629       19.8756      -2.97083             0       11.2213      -1.77119             0       34.0008       18.8599             0       53.5895             0             0      0.222052   4.46627e-16     0.0345557        102109        103195        136437   8.18305e-16
    0.0272097       287.785       288.353      0.109817       19.3878       -3.1815             0       10.9822      -1.88232             0        33.188       18.6028             0       55.1336             0             0      0.222125   4.47721e-16     0.0342414        102100        103193        137706   8.20309e-16
    0.0273774       287.791       288.355      0.110004       18.9001      -3.39218             0       10.7432      -1.99345             0       32.3751       18.3458             0       56.6776             0             0      0.222197   4.48816e-16     0.0339271        102091        103191        138975   8.22314e-16
     0.027545       287.797       288.356      0.110192       18.4123      -3.60285             0       10.5041      -2.10458             0       31.5622       18.0887             0       58.2216             0             0      0.222269    4.4991e-16     0.0336128        102082        103190        140244   8.24318e-16
    0.0277127       287.803       288.358       0.11038       17.9245      -3.81353             0        10.265      -2.21571             0       30.7493       17.8317             0       59.7656             0             0      0.222342   4.51004e-16     0.0332985        102073        103188        141513   8.26323e-16
    0.0278804        287.81       288.359      0.110568       17.4368       -4.0242             0        10.026      -2.32685             0       29.9365       17.5746             0       61.3097             0             0      0.222414   4.52098e-16     0.0329842        102064        103186        142782   8.28327e-16
     0.028048       287.815       288.361      0.110707       16.8891      -4.24379             0       9.78084      -2.43989             0       29.0986       17.2548             0       62.8539             0             0      0.222474   4.53147e-16     0.0327209        102055        103184        144043    8.3025e-16
    0.0282157        287.82       288.362      0.110724        16.192      -4.48558             0       9.52065      -2.55771             0       28.1986       16.7787             0       64.3986             0             0      0.222506   4.54086e-16     0.0325845        102047        103183        145281   8.31969e-16
    0.0283834       287.825       288.363      0.110742        15.495      -4.72737             0       9.26046      -2.67552             0       27.2986       16.3026             0       65.9433             0             0      0.222537   4.55024e-16     0.0324481        102039        103181        146519   8.33688e-16
    0.0285511       287.829       288.365      0.110759       14.7979      -4.96917             0       9.00027      -2.79334             0       26.3985       15.8266             0       67.4881             0             0      0.222568   4.55962e-16     0.0323117        102031        103179        147757   8.35407e-16
    0.0287187       287.834       288.366      0.110777       14.1009      -5.21096             0       8.74008      -2.91115             0       25.4985       15.3505             0       69.0328             0             0        0.2226     4.569e-16     0.0321754        102024        103177        148995   8.37126e-16
    0.0288864       287.838       288.368      0.110794       13.4038      -5.45275             0       8.47989      -3.02897             0       24.5985       14.8744             0       70.5775             0             0      0.222631   4.57839e-16      0.032039        102016        103175        150233   8.38846e-16
    0.0290541       287.842       288.369      0.110752       12.6651      -5.69798             0       8.21661      -3.14863             0       23.7207       14.3215             0       72.0487             0             0      0.222655   4.58575e-16     0.0319324        102008        103173        151386   8.40195e-16
    0.0292217       287.844        288.37      0.110584       11.8386      -5.95045             0       7.94685       -3.2722             0       22.8896       13.6072             0       73.3654             0             0      0.222666   4.58887e-16     0.0318883        102003        103172        152362   8.40767e-16
    0.0293894       287.846       288.371      0.110416       11.0122      -6.20291             0       7.67708      -3.39576             0       22.0585       12.8928             0       74.6821             0             0      0.222676     4.592e-16     0.0318442        101997        103170        153339   8.41339e-16
    0.0295571       287.849       288.372      0.110248       10.1858      -6.45538             0       7.40732      -3.51932             0       21.2274       12.1785             0       75.9988             0             0      0.222686   4.59512e-16     0.0318001        101992        103168        154315   8.41911e-16
    0.0297247       287.851       288.373      0.110081       9.35934      -6.70785             0       7.13756      -3.64288             0       20.3963       11.4642             0       77.3155             0             0      0.222696   4.59824e-16      0.031756        101986        103167        155291   8.42483e-16
    0.0298924       287.853       288.374      0.109913       8.53291      -6.96031             0       6.86779      -3.76644             0       19.5652       10.7499             0       78.6322             0             0      0.222706   4.60136e-16     0.0317119        101981        103165        156267   8.43055e-16
    0.0300601       287.854       288.374      0.109706       7.69433      -7.20615             0       6.59399      -3.88964             0        18.906       9.95994             0       79.8083             0             0      0.222713   4.60354e-16     0.0316805        101976        103164        157105   8.43455e-16
    0.0302277       287.855       288.375      0.109431         6.834      -7.44011             0       6.31297      -4.01217             0       18.5547       9.03461             0       80.7325             0             0      0.222715   4.60404e-16     0.0316721        101974        103162        157695   8.43546e-16
    0.0303954       287.855       288.376      0.109156       5.97367      -7.67406             0       6.03194      -4.13471             0       18.2035       8.10928             0       81.6567             0             0      0.222717   4.60453e-16     0.0316636        101971        103161        158286   8.43637e-16
    0.0305631       287.856       288.376      0.108881       5.11334      -7.90802             0       5.75092      -4.25724             0       17.8522       7.18396             0       82.5809             0             0      0.222719   4.60503e-16     0.0316552        101969        103160        158876   8.43727e-16
    0.0307307       287.856       288.377      0.108605       4.25301      -8.14198             0       5.46989      -4.37978             0       17.5009       6.25863             0       83.5051             0             0      0.222721   4.60552e-16     0.0316467        101967        103158        159467   8.43818e-16
    0.0308984       287.857       288.378       0.10833       3.39268      -8.37593             0       5.18886      -4.50232             0       17.1496        5.3333             0       84.4292             0             0      0.222723   4.60602e-16     0.0316383        101964        103157        160057   8.43909e-16
    0.0310661       287.857       288.378      0.108096       2.55722      -8.59252             0       4.90746      -4.62246             0       16.9932       4.40441             0       85.1714             0             0       0.22272   4.60517e-16     0.0316512        101963        103156        160504   8.43754e-16
    0.0312337       287.856       288.379      0.107925       1.76002       -8.7824             0       4.62549      -4.73891             0       17.1364       3.47002             0       85.6337             0             0       0.22271   4.60227e-16     0.0316972        101965        103155        160730   8.43221e-16
    0.0314014       287.854       288.379      0.107753      0.962822      -8.97227             0       4.34351      -4.85537             0       17.2795       2.53564             0        86.096             0             0      0.222699   4.59936e-16     0.0317432        101966        103154        160956   8.42689e-16
    0.0315691       287.853        288.38      0.107582      0.165623      -9.16215             0       4.06154      -4.97182             0       17.4227       1.60125             0       86.5583             0             0      0.222689   4.59646e-16     0.0317892        101967        103153        161182   8.42157e-16
    0.0317367       287.852        288.38      0.107411     -0.631577      -9.35203             0       3.77956      -5.08828             0       17.5659      0.666868             0       87.0206             0             0      0.222678   4.59355e-16     0.0318352        101968        103152        161408   8.41624e-16
    0.0319044       287.851        288.38       0.10724      -1.42878       -9.5419             0       3.49759      -5.20474             0       17.7091     -0.267516             0       87.4828             0             0      0.222667   4.59064e-16     0.0318812        101969        103152        161634   8.41092e-16
    0.0320721        287.85       288.381      0.107084      -2.16341      -9.70372             0       3.22233      -5.31811             0       17.9411      -1.11166             0       87.7597             0             0       0.22265   4.58579e-16     0.0319558        101972        103151        161759   8.40202e-16
    0.0322397       287.847       288.381      0.106948      -2.81504      -9.82832             0         2.956      -5.42741             0        18.291      -1.83609             0       87.7906             0             0      0.222624   4.57834e-16     0.0320685        101976        103150        161750   8.38838e-16
    0.0324074       287.844       288.381      0.106812      -3.46667      -9.95291             0       2.68966      -5.53671             0        18.641      -2.56053             0       87.8215             0             0      0.222598    4.5709e-16     0.0321811        101980        103150        161741   8.37474e-16
    0.0325751       287.841        288.38      0.106676      -4.11831      -10.0775             0       2.42332      -5.64601             0       18.9909      -3.28497             0       87.8524             0             0      0.222572   4.56345e-16     0.0322938        101984        103149        161732    8.3611e-16
    0.0327427       287.839        288.38       0.10654      -4.76994      -10.2021             0       2.15698      -5.75531             0       19.3408      -4.00941             0       87.8833             0             0      0.222547   4.55601e-16     0.0324065        101988        103149        161724   8.34746e-16
    0.0329104       287.836        288.38      0.106404      -5.42158      -10.3267             0       1.89064       -5.8646             0       19.6907      -4.73385             0       87.9142             0             0      0.222521   4.54856e-16     0.0325191        101992        103148        161715   8.33382e-16
    0.0330781       287.833        288.38      0.106286      -5.98845      -10.4228             0       1.63548      -5.96939             0       20.0267      -5.29864             0        87.779             0             0      0.222487   4.53922e-16     0.0326642        101997        103148        161655   8.31669e-16
    0.0332457       287.829        288.38       0.10619      -6.45806      -10.4863             0       1.39314      -6.06901             0       20.3466      -5.68025             0       87.4532             0             0      0.222445   4.52768e-16     0.0328464        102004        103147        161538   8.29556e-16
    0.0334134       287.825       288.379      0.106094      -6.92768      -10.5498             0        1.1508      -6.16863             0       20.6665      -6.06187             0       87.1274             0             0      0.222403   4.51615e-16     0.0330285        102010        103147        161420   8.27443e-16
    0.0335811       287.821       288.379      0.105998      -7.39729      -10.6133             0      0.908467      -6.26825             0       20.9864      -6.44348             0       86.8016             0             0      0.222361   4.50462e-16     0.0332107        102016        103147        161303    8.2533e-16
    0.0337487       287.817       288.378      0.105901      -7.86691      -10.6767             0       0.66613      -6.36787             0       21.3063      -6.82509             0       86.4758             0             0      0.222319   4.49309e-16     0.0333929        102023        103147        161185   8.23217e-16
    0.0339164       287.813       288.378      0.105805      -8.33652      -10.7402             0      0.423793      -6.46748             0       21.6262       -7.2067             0       86.1499             0             0      0.222277   4.48155e-16     0.0335751        102029        103147        161067   8.21104e-16
    0.0340841       287.808       288.377      0.105739      -8.72036      -10.7746             0      0.193684      -6.55993             0       21.8721      -7.40083             0       85.6788             0             0      0.222222   4.46869e-16      0.033815        102036        103147        160938   8.18748e-16
    0.0342518       287.804       288.377      0.105703      -9.01894      -10.7801             0    -0.0242704      -6.64524             0       22.0446      -7.40858             0       85.0631             0             0      0.222154   4.45451e-16     0.0341125        102043        103147        160798   8.16151e-16
    0.0344194       287.799       288.376      0.105668      -9.31752      -10.7857             0     -0.242225      -6.73055             0       22.2171      -7.41633             0       84.4474             0             0      0.222085   4.44034e-16     0.0344099        102051        103147        160657   8.13553e-16
    0.0345871       287.794       288.376      0.105632       -9.6161      -10.7912             0     -0.460179      -6.81586             0       22.3895      -7.42409             0       83.8317             0             0      0.222017   4.42616e-16     0.0347073        102058        103147        160517   8.10955e-16
    0.0347548        287.79       288.375      0.105596      -9.91468      -10.7967             0     -0.678133      -6.90117             0        22.562      -7.43184             0        83.216             0             0      0.221949   4.41198e-16     0.0350047        102065        103147        160376   8.08357e-16
    0.0349224       287.785       288.375      0.105561      -10.2133      -10.8022             0     -0.896087      -6.98649             0       22.7345      -7.43959             0       82.6003             0             0       0.22188    4.3978e-16     0.0353021        102073        103147        160236    8.0576e-16
    0.0350901       287.781       288.374      0.105597      -10.4378      -10.7821             0      -1.10328      -7.06167             0       22.8313       -7.2858             0       81.8474             0             0       0.22176   4.39004e-16     0.0358246        102080        103148        160114   8.04337e-16
    0.0352578       287.776       288.374      0.105696      -10.5986      -10.7399             0      -1.30121      -7.12814             0       22.8629      -6.99291             0       80.9764             0             0      0.221596    4.3878e-16     0.0365409        102088        103148        160009   8.03927e-16