#           y             T         TMean   TPrime2Mean           U_x           U_y           U_z       UMean_x       UMean_y       UMean_z UPrime2Mea... UPrime2Mea... UPrime2Mea... UPrime2Mea... UPrime2Mea... UPrime2Mea...            O2           H2O          C3H8             p         pMean   pPrime2Mean           CO2
            0       287.953       288.028     0.0617148       21.8725             0             0        22.485             0             0        5.8677             0             0             0             0             0          0.23    5.6538e-22   3.86084e-10        102888        103258        187658   1.03588e-21
  0.000500501       287.953       288.028     0.0617345       21.8642    -0.0411373             0       22.4866     0.0128347             0       5.88038      0.135398             0     0.0401689             0             0          0.23   1.44888e-21    3.7218e-09        102887        103257        187176   2.65463e-21
     0.001001       287.953       288.028      0.061754       21.8557    -0.0822466             0       22.4882     0.0256761             0       5.89321      0.270805             0     0.0804529             0             0          0.23   2.34274e-21   7.20792e-09        102886        103257        186692   4.29233e-21
    0.0015015       287.952       288.028     0.0616223       21.8171     -0.109433             0        22.484     0.0418153             0       5.97775      0.410011             0      0.178125             0             0          0.23   8.40074e-21   8.57412e-08        102885        103257        185381   1.53917e-20
     0.002002       287.951       288.027     0.0614903       21.7785     -0.136518             0       22.4799     0.0579371             0       6.06255      0.549347             0      0.276229             0             0          0.23   1.45538e-20   1.68692e-07        102883        103258        184067   2.66653e-20
    0.0025025       287.951       288.027     0.0612827       21.7231     -0.138192             0       22.4796     0.0697009             0       6.21106      0.720824             0      0.481997             0             0          0.23   4.43777e-20   1.35162e-06        102879        103258        181987   8.13081e-20
     0.003003        287.95       288.027     0.0610745       21.6675     -0.139407             0       22.4793     0.0815412             0       6.36104      0.892353             0      0.688535             0             0      0.229999   7.47127e-20   2.60495e-06        102876        103257        179904   1.36887e-19
    0.0035035       287.949       288.027     0.0607804       21.5584    -0.0645664             0       22.4685       0.10604             0       6.75447       1.07246             0       1.02272             0             0      0.229996    1.8972e-19   1.55221e-05        102871        103257        177310   3.47602e-19
     0.004004       287.947       288.027     0.0604814       21.4494     0.0108398             0       22.4579      0.130455             0       7.15033       1.25389             0       1.36055             0             0      0.229993   3.06696e-19   2.91595e-05        102867        103257        174713   5.61925e-19
    0.0045045       287.941       288.028     0.0595817       21.3636      0.156428             0       22.4575      0.144529             0       7.84772       1.59782             0       2.15118             0             0       0.22997   6.67845e-19   0.000132118        102860        103256        171676   1.22362e-18
   0.00500501       287.935        288.03     0.0587228        21.276      0.304519             0       22.4566      0.158838             0       8.55391       1.94141             0       2.94936             0             0      0.229945   1.03452e-18   0.000239901        102854        103255        168638   1.89543e-18
   0.00550551       287.905       288.043     0.0618977       21.0176      0.700318             0       22.4142      0.196389             0       10.1323        2.2502             0       4.49478             0             0       0.22981   1.94804e-18   0.000825226        102846        103254        165528   3.56918e-18
   0.00600601       287.875       288.056      0.065344       20.7615       1.09672             0       22.3716      0.233303             0       11.7085       2.56592             0       6.06893             0             0      0.229673   2.86708e-18    0.00142261        102837        103253        162422   5.25302e-18
   0.00650651       287.808       288.089     0.0911377       20.6873       1.54313             0       22.3247       0.21779             0       13.1046       3.45264             0       10.0095             0             0      0.229307   4.24008e-18     0.0030132        102827        103249        159651   7.76861e-18
   0.00700701        287.74       288.123      0.117356       20.6152       1.99404             0       22.2783      0.203252             0       14.4732       4.33538             0       13.9727             0             0      0.228934   5.61636e-18    0.00463448        102816        103245        156889   1.02902e-17
   0.00750751       287.646       288.164      0.173505        20.693       2.76219             0       22.2752      0.257375             0       13.8938       4.93708             0       19.5338             0             0      0.228064   7.22407e-18    0.00841795        102805        103239        154729   1.32358e-17
   0.00800801       287.552       288.204      0.230185       20.7509       3.52796             0       22.2621      0.309435             0       13.2989       5.49945             0       25.1058             0             0      0.227172   8.84945e-18     0.0122962        102794        103233        152569   1.62139e-17
   0.00850851       287.386       288.207       0.31953       19.5865       4.14685             0       21.6371       0.23471             0       11.7541       3.64312             0       31.3529             0             0      0.224939   1.15614e-17     0.0220061        102780        103225        150360   2.11827e-17
   0.00900901       287.222       288.208       0.40807       18.4375       4.75199             0       21.0097      0.160308             0       10.2085       1.76933             0       37.5566             0             0      0.222675   1.42769e-17     0.0318464        102766        103217        148130   2.61579e-17
   0.00950951       287.151       288.189      0.452725       18.1349       4.60777             0       20.2541       0.10352             0       8.62171      -1.05651             0       41.3931             0             0      0.218774   1.71815e-17     0.0488071        102752        103213        144730   3.14797e-17
      0.01001        287.08        288.17      0.495898       17.8398       4.45917             0       19.4918     0.0498796             0       7.06055      -3.85211             0       45.1311             0             0      0.214817    2.0082e-17     0.0660146        102739        103209        141307    3.6794e-17
    0.0105105       287.047       288.146      0.466498       17.9138       4.09611             0       18.4008      0.150462             0       6.75728      -5.16573             0       44.0379             0             0      0.208076   2.27815e-17     0.0953205        102735        103214        136812   4.17399e-17
     0.011011       287.014       288.121      0.437429       17.9537       3.72903             0       17.2943      0.250472             0       6.47431      -6.44176             0       42.8616             0             0      0.201101   2.55174e-17      0.125648        102732        103219        132300   4.67526e-17
    0.0115115       286.943       288.041      0.423037       16.4802       3.18321             0       15.4968      0.325027             0       7.09343      -6.04672             0       37.9905             0             0      0.183684    2.9875e-17      0.201372        102726        103228        126994   5.47366e-17
     0.012012       286.878       287.961       0.40933       15.0092       2.63426             0       13.7023       0.39775             0       7.69406      -5.62558             0       33.0777             0             0      0.165937   3.42064e-17      0.278534        102720        103237        121698   6.26724e-17
    0.0125125       287.064       287.895      0.423455        13.643       1.95768             0       12.0343      0.395992             0       7.54254      -4.14291             0       26.4706             0             0      0.134748   3.74708e-17      0.414137        102707        103244        116752   6.86534e-17
     0.013013       287.251       287.831      0.436981       12.3017       1.29037             0       10.3928      0.392312             0       7.37798      -2.66968             0       19.9375             0             0      0.103691   4.06024e-17      0.549171        102695        103251        111843   7.43911e-17
    0.0135135       287.508       287.858      0.428056       11.8944      0.969974             0       9.74216      0.316652             0       6.72473      -1.54985             0       16.1731             0             0     0.0775316     3.876e-17      0.662906        102677        103254        108330   7.10155e-17
     0.014014       287.761       287.886      0.417728       11.5009      0.655143             0        9.1168       0.24361             0       6.07035     -0.455336             0       12.4665             0             0     0.0519468   3.69677e-17      0.774144        102660        103258        104842   6.77317e-17
    0.0145145       287.872       287.946       0.35869       11.5884      0.533433             0       9.36863      0.261434             0        5.3766     -0.239301             0       10.7659             0             0     0.0462958    3.6916e-17      0.798714        102641        103259        102237   6.76369e-17
     0.015015        287.98       288.005      0.299873       11.6766       0.41594             0       9.61783      0.277472             0       4.70418     -0.030383             0       9.10201             0             0     0.0411837    3.7066e-17       0.82094        102623        103261       99667.8   6.79119e-17
    0.0155155       288.038       288.035      0.248212       11.7898      0.434797             0       9.78184      0.235804             0       4.72159     -0.051557             0       8.62424             0             0     0.0534971   4.37426e-17      0.767404        102607        103261       98252.8   8.01445e-17
     0.016016       288.096       288.064      0.197653       11.9519      0.443996             0       9.96447      0.192049             0       4.82207     -0.102422             0       8.18515             0             0     0.0661763   5.03281e-17      0.712277        102591        103260       96856.6   9.22105e-17
    0.0165165       288.143       288.092       0.18043       13.5912      0.161069             0       10.7104     0.0851979             0       7.43519      -1.05144             0        8.9161             0             0     0.0899206   5.41613e-17      0.609041        102579        103259       96026.9   9.92337e-17
     0.017017       288.185       288.119      0.163435        15.288     -0.139735             0       11.5215    -0.0256056             0       10.0677        -2.014             0       9.63384             0             0      0.113858   5.76395e-17      0.504966        102568        103258       95196.3   1.05606e-16
    0.0175175       288.085       288.146      0.152939       18.6173     -0.948455             0       14.1817     -0.248695             0       13.2515      -3.36137             0       9.97596             0             0      0.143279   5.10299e-17      0.377046        102560        103258       94339.2   9.34963e-17
     0.018018       287.985       288.172      0.142376       21.8946      -1.74046             0       16.8338     -0.463708             0       16.3629      -4.67851             0       10.3181             0             0      0.172406   4.42671e-17      0.250409        102553        103258       93484.9   8.11057e-17
    0.0185185       287.859       288.151      0.130036       23.7792      -2.08501             0       19.2638     -0.462448             0       17.5337      -5.18626             0       10.6621             0             0      0.193636    3.3406e-17      0.158103        102546        103257         92703   6.12061e-17
     0.019019       287.737        288.13       0.11755       25.5905       -2.4353             0       21.6276      -0.45904             0       18.6553       -5.6691             0       10.9868             0             0       0.21431   2.27381e-17     0.0682162        102538        103256       91956.5   4.16605e-17
    0.0195195       287.736       288.091       0.10138       25.5461      -2.93089             0       22.3162     -0.401248             0       18.5296      -5.52124             0       10.8259             0             0      0.220906   1.69619e-17     0.0395401        102533        103256       92105.2   3.10774e-17
      0.02002       287.736       288.053     0.0854044       25.4966      -3.42599             0       22.9885     -0.344716             0       18.3832      -5.37101             0       10.6633             0             0      0.227283   1.15384e-17     0.0118148        102528        103257       92277.5   2.11405e-17
    0.0205205       287.745       288.035     0.0741186       25.3239      -3.90894             0       23.2718     -0.318435             0       17.7384      -5.16387             0         10.46             0             0      0.228411   1.45797e-17    0.00691031        102524        103256       93013.7   2.67127e-17
     0.021021       287.755       288.017     0.0631322       25.1306      -4.37903             0       23.5398      -0.28819             0       17.1021      -4.93813             0       10.3038             0             0       0.22948   1.85412e-17     0.0022593        102520        103256       93757.9   3.39709e-17
    0.0215215       287.779       288.017     0.0589758       24.4667      -4.55548             0       23.4597     -0.167506             0       16.6592      -4.28811             0       11.2245             0             0       0.22922   4.34915e-17    0.00339008        102518        103254       94682.8   7.96845e-17
     0.022022       287.804       288.019     0.0548514       23.7482      -4.72729             0       23.3561    -0.0463178             0       16.2295      -3.58528             0        12.181             0             0       0.22894   6.93828e-17    0.00460996        102515        103251       95617.2   1.27122e-16
    0.0225225       287.837       288.041     0.0514226        21.841      -4.79843             0       22.7421     0.0858313             0        16.088      -1.73486             0       13.9176             0             0      0.228214    1.1572e-16     0.0077659        102514        103248       96760.4   2.12021e-16
     0.023023        287.87       288.064     0.0480295       19.8731      -4.85335             0       22.0765      0.224163             0       16.0345      0.182751             0       15.6692             0             0      0.227452   1.63961e-16     0.0110794        102514        103245       97905.1   3.00407e-16
    0.0235235       287.902       288.111      0.045376       16.6443      -4.57172             0       20.3421      0.490705             0       17.8022       3.49397             0       17.7301             0             0      0.225938   2.51687e-16     0.0176612        102514        103240       99082.3   4.61138e-16
     0.024024       287.934       288.159     0.0430284       13.4524      -4.32127             0       18.5464      0.751054             0       19.9104       6.74324             0       19.8402             0             0      0.224418   3.39165e-16     0.0242706        102513        103235        100273   6.21413e-16
    0.0245245       287.958       288.222     0.0467485       10.9898      -4.68909             0       15.5357       0.88856             0       28.7712       8.76382             0       22.9254             0             0      0.222772   4.21717e-16      0.031427        102512        103230        101729   7.72663e-16
     0.025025        287.98       288.284     0.0507288        8.6025      -5.08434             0       12.5353       1.01252             0       37.9811       10.5923             0       26.0753             0             0       0.22117   5.01138e-16     0.0383917        102509        103224        103184   9.18178e-16
    0.0255255       287.977       288.338     0.0596521       7.64573      -6.00095             0       9.73085      0.879198             0       53.8247       8.77054             0       30.4519             0             0      0.220406   5.21082e-16     0.0417131        102504        103217        104593   9.54718e-16
     0.026026       287.974       288.391     0.0685005       6.67508       -6.9002             0       6.98327      0.739748             0       69.4366        6.8653             0       34.8277             0             0      0.219665   5.39949e-16     0.0449347        102498        103210        106009   9.89286e-16
    0.0265265       287.961        288.42     0.0759831       5.45123      -7.48292             0       5.27166      0.488671             0       80.8223         3.438             0       39.1899             0             0      0.219342   5.39197e-16     0.0463386        102491        103201        107570   9.87908e-16
     0.027027       287.947       288.449     0.0832363       4.21323      -8.05928             0       3.59435      0.232346             0       91.5715   -0.00281603             0        43.501             0             0       0.21902   5.38754e-16     0.0477392        102483        103193        109150   9.87097e-16
    0.0275275       287.934       288.466     0.0864725       2.72724      -8.52439             0       2.51787     -0.115897             0       91.1714       -3.6802             0       46.9174             0             0      0.218711   5.43724e-16     0.0490828        102474        103185        111062   9.96203e-16
     0.028028       287.921       288.482     0.0895355        1.2505       -8.9846             0       1.45972     -0.466604             0       90.3125      -7.33352             0       50.2292             0             0      0.218398   5.49199e-16     0.0504434        102464        103176        112996   1.00624e-15
    0.0285285       287.908       288.494     0.0896798    -0.0702388      -9.36228             0      0.710757     -0.858846             0       81.7196      -10.5811             0       51.7788             0             0      0.218019   5.63205e-16     0.0520919        102453        103169        115323    1.0319e-15
     0.029029       287.895       288.505     0.0896934      -1.38554       -9.7295             0    -0.0332247      -1.24953             0       72.9764      -13.7127             0       53.2185             0             0       0.21764   5.77404e-16     0.0537383        102442        103162        117652   1.05791e-15
    0.0295295       287.887       288.515      0.087585      -2.61256      -9.92702             0     -0.696276      -1.61495             0       61.7931      -14.9599             0       52.8751             0             0      0.217269    5.9474e-16     0.0553518        102430        103157        120020   1.08968e-15
      0.03003       287.879       288.524     0.0854353      -3.81946      -10.1173             0      -1.35568      -1.97725             0       50.7132      -16.0693             0       52.4464             0             0      0.216903   6.11906e-16     0.0569442        102417        103151        122367   1.12113e-15
    0.0305305       287.873       288.532     0.0826402      -4.71142      -10.1934             0      -1.95799      -2.29065             0       41.2536      -15.0203             0       50.6813             0             0      0.216613   6.26408e-16     0.0582045        102403        103149        124381    1.1477e-15
     0.031031       287.868        288.54     0.0799612      -5.57795      -10.2607             0      -2.55442      -2.59794             0       32.1014       -13.878             0       48.8556             0             0      0.216336   6.40805e-16     0.0594111        102389        103147        126352   1.17408e-15
    0.0315315       287.863       288.544     0.0790395      -6.05982      -10.1935             0      -3.06189      -2.81282             0       27.6007      -11.3239             0       46.1127             0             0      0.216245   6.53622e-16     0.0598047        102375        103148        127666   1.19756e-15
     0.032032       287.858       288.548     0.0782437      -6.51101      -10.1204             0      -3.55827      -3.02163             0          23.4      -8.76176             0       43.3398             0             0      0.216169   6.67435e-16     0.0601364        102361        103149        128966   1.22286e-15
    0.0325325       287.857       288.548     0.0792892      -6.51337      -9.96199             0       -3.8925       -3.1418             0        23.588      -6.08099             0       40.1276             0             0      0.216301   6.95831e-16     0.0595618        102347        103153        130050   1.27489e-15
     0.033033       287.857       288.548     0.0803757      -6.49317      -9.80203             0      -4.21348      -3.25635             0       23.9115      -3.44579             0       36.9122             0             0      0.216465   7.25994e-16     0.0588462        102334        103157        131164   1.33016e-15
    0.0335335       287.874       288.548     0.0820436      -6.15381      -9.62033             0      -4.34686      -3.29154             0       26.1525      -1.45534             0       33.6512             0             0      0.217089   7.81177e-16     0.0561357        102323        103163        132708   1.43126e-15
     0.034034       287.892       288.547     0.0836723      -5.80954       -9.4435             0      -4.46849      -3.32314             0       28.3824      0.487335             0       30.4121             0             0      0.217732   8.35998e-16     0.0533384        102311        103168        134301    1.5317e-15
    0.0345345        287.93       288.547     0.0847649      -5.39792      -9.33344             0      -4.42909      -3.30573             0       30.4602       1.77535             0       27.4715             0             0      0.218649   8.85855e-16     0.0493511        102303        103174        136566   1.62305e-15
     0.035035       287.968       288.547      0.085742      -4.99662       -9.2304             0       -4.3811      -3.28521             0       32.4442       3.02652             0       24.5592             0             0      0.219549   9.33682e-16     0.0454372        102294        103180        138859   1.71068e-15
    0.0355355       288.007        288.55     0.0851857      -4.73231      -9.22061             0      -4.21903      -3.22335             0       33.1832       3.78813             0       22.0227             0             0      0.220225   9.54525e-16     0.0424996        102287        103185        141525   1.74887e-15
     0.036036       288.044       288.552     0.0844637       -4.4729       -9.2124             0         -4.05      -3.15831             0       33.7957       4.50449             0       19.5154             0             0      0.220878   9.74306e-16     0.0396604        102281        103190        144199   1.78511e-15
    0.0365365       288.067       288.558     0.0816061      -4.27648      -9.22469             0      -3.79136      -3.05223             0       32.7766       4.63756             0       17.3852             0             0       0.22124   9.80394e-16     0.0380878        102275        103194        146956   1.79626e-15
     0.037037       288.088       288.564     0.0786621      -4.06661      -9.23129             0      -3.52839      -2.94285             0       31.6551       4.72739             0       15.2884             0             0      0.221585    9.8615e-16     0.0365842        102270        103198        149701   1.80681e-15
    0.0375375       288.094       288.574     0.0746372      -3.68836      -9.16683             0       -3.2113      -2.79196             0       29.2517       4.27625             0        13.611             0             0      0.221733   9.87757e-16     0.0359441        102266        103201        152298   1.80976e-15
     0.038038       288.101       288.583     0.0705996       -3.2922      -9.09636             0      -2.89266       -2.6389             0       26.8344       3.80836             0        11.972             0             0      0.221875   9.89246e-16     0.0353247        102262        103203        154878   1.81248e-15
    0.0385385       288.101       288.593     0.0664065      -2.67832      -8.95298             0      -2.55517      -2.45944             0       24.2494       3.13688             0       10.7993             0             0       0.22196   9.89308e-16     0.0349558        102260        103205        157252    1.8126e-15
     0.039039       288.102       288.604     0.0622739      -2.06071      -8.80695             0      -2.21794      -2.27915             0       21.7198       2.47217             0       9.65681             0             0      0.222045   9.89286e-16      0.034586        102258        103207        159607   1.81256e-15
    0.0395395       288.104       288.613     0.0588565      -1.39907      -8.62951             0      -1.88369      -2.08904             0       19.8466       1.88743             0       8.87168             0             0      0.222133   9.88273e-16     0.0342054        102258        103208        161735    1.8107e-15
      0.04004       288.107       288.621      0.055591     -0.742181      -8.44882             0      -1.54933       -1.8994             0       18.0299       1.31232             0       8.10098             0             0      0.222217   9.87216e-16     0.0338395        102259        103210        163846   1.80877e-15
    0.0405405       288.112       288.627     0.0540723     -0.140025      -8.23069             0      -1.21358      -1.71521             0       16.8642      0.847925             0       7.49639             0             0      0.222262   9.85648e-16     0.0336421        102262        103211        165750   1.80589e-15
     0.041041       288.117       288.633     0.0526425      0.459905      -8.00733             0     -0.876123      -1.53187             0       15.7178      0.394205             0       6.89615             0             0      0.222302   9.84049e-16     0.0334684        102265        103212        167630   1.80296e-15
    0.0415415       288.125       288.638     0.0522079       1.03492      -7.72559             0     -0.519619      -1.35795             0       14.7888     0.0599479             0       6.34471             0             0      0.222281    9.8212e-16     0.0335603        102269        103213        169245   1.79943e-15
     0.042042       288.133       288.643     0.0518095       1.60503       -7.4389             0     -0.161283      -1.18533             0       13.8798     -0.259273             0       5.79383             0             0      0.222253   9.80269e-16     0.0336842        102274        103214        170833   1.79604e-15
    0.0425425       288.144       288.648     0.0518059       2.12177      -7.09831             0      0.217039      -1.02677             0       13.1891      -0.41453             0       5.24914             0             0      0.222144   9.79286e-16     0.0341571        102280        103215        172130   1.79423e-15
     0.043043       288.156       288.653     0.0518271       2.62489      -6.75297             0      0.594988     -0.869985             0       12.5525      -0.55444             0       4.70586             0             0      0.222026   9.78576e-16      0.034671        102286        103217        173398   1.79293e-15
    0.0435435       288.167       288.657     0.0521127       2.98334      -6.35719             0      0.968972     -0.732081             0       12.4916     -0.531244             0       4.17761             0             0      0.221807   9.80764e-16     0.0356204        102293        103218        174364   1.79694e-15
     0.044044       288.178       288.661     0.0523659       3.32613      -5.95665             0       1.34138     -0.595938             0       12.4906      -0.49725             0       3.65428             0             0      0.221576   9.83333e-16     0.0366245        102300        103220        175306   1.80165e-15
    0.0445445        288.19       288.663     0.0522847       3.50671      -5.50675             0       1.69739      -0.47805             0       13.1105     -0.351346             0       3.18186             0             0      0.221215   9.89855e-16     0.0381948        102306        103221        175999    1.8136e-15
     0.045045       288.203       288.666      0.052087       3.67668      -5.05705             0       2.04895     -0.362745             0       13.7656     -0.202259             0       2.71455             0             0      0.220835   9.96792e-16     0.0398492        102313        103223        176675   1.82631e-15
    0.0455455       288.225       288.666     0.0507109       3.73943      -4.60927             0       2.35539     -0.273567             0       14.7762    -0.0209931             0       2.29889             0             0      0.220259   1.00794e-15     0.0423532        102319        103225        177172   1.84673e-15