#           y             T         TMean   TPrime2Mean           U_x           U_y           U_z       UMean_x       UMean_y       UMean_z UPrime2Mea... UPrime2Mea... UPrime2Mea... UPrime2Mea... UPrime2Mea... UPrime2Mea...            O2           H2O          C3H8             p         pMean   pPrime2Mean           CO2
  1.11022e-19       287.767       288.131      0.123613       23.6953  -4.35013e-16             0       19.4986  -2.01445e-16             0       25.0351  -4.17926e-17             0   4.58662e-16             0             0      0.229968   3.67478e-18   0.000139321        102588        103272        161211   6.73288e-18
  0.000500501       287.761       288.133      0.125488       23.6813    -0.0426911             0       19.5017     0.0637666             0       25.0906    -0.0211859             0     0.0543842             0             0      0.229907   5.71579e-18   0.000404146        102588        103272        161166   1.04724e-17
     0.001001       287.755       288.135      0.127374       23.6673    -0.0853452             0       19.5047      0.127533             0       25.1463    -0.0423578             0      0.108928             0             0      0.229845    7.7678e-18   0.000672011        102588        103272        161121    1.4232e-17
    0.0015015       287.732       288.142      0.134125       23.6323     -0.109536             0       19.5152      0.191267             0       25.3079     -0.056544             0      0.242959             0             0      0.229435   1.53086e-17    0.00245605        102588        103272        161003   2.80482e-17
     0.002002       287.708       288.149      0.140884       23.5976     -0.133674             0       19.5258         0.255             0       25.4704    -0.0707368             0      0.377417             0             0      0.229021   2.28783e-17    0.00425775        102588        103271        160885   4.19173e-17
    0.0025025       287.662       288.161      0.149519       23.6004     -0.144939             0       19.5432      0.318622             0       25.8338    -0.0865894             0      0.618324             0             0      0.227595   3.76591e-17     0.0104561        102587        103271        160729   6.89984e-17
     0.003003       287.615       288.174      0.158134       23.6041     -0.156583             0       19.5608      0.382245             0       26.1983     -0.102358             0      0.859941             0             0      0.226159   5.24782e-17     0.0167027        102587        103270        160573   9.61496e-17
    0.0035035       287.556       288.191      0.163397       23.7514     -0.230937             0       19.5916      0.446073             0       26.7386     -0.104162             0       1.21917             0             0      0.222881   7.36381e-17     0.0309512        102586        103270        160411   1.34919e-16
     0.004004       287.497       288.209      0.168621       23.8998     -0.306577             0       19.6224      0.509921             0       27.2775     -0.105755             0       1.57936             0             0      0.219584    9.4844e-17     0.0452882        102585        103269        160249   1.73772e-16
    0.0045045       287.505       288.221      0.168966       24.1681     -0.541688             0       19.6445      0.576213             0       27.6475    -0.0811925             0       2.05865             0             0      0.213765   1.21747e-16     0.0705878        102585        103269        160098   2.23063e-16
   0.00500501       287.514       288.233      0.169275       24.4343     -0.777571             0       19.6663       0.64253             0       28.0124    -0.0559141             0       2.53876             0             0      0.207931   1.48678e-16     0.0959548        102585        103268        159948   2.72406e-16
   0.00550551       287.631       288.238      0.166044       24.5027      -1.08982             0       19.6451      0.711337             0       27.8682     0.0402848             0       3.10016             0             0      0.200562    1.7837e-16      0.127992        102584        103267        159807   3.26807e-16
   0.00600601       287.749       288.243      0.162824       24.5609      -1.39907             0       19.6228      0.780201             0       27.7174      0.138353             0       3.66145             0             0      0.193196   2.08106e-16      0.160018        102584        103266        159667   3.81289e-16
   0.00650651       287.903       288.247      0.160488       23.7881      -1.46128             0       19.5145      0.853754             0       27.0225      0.390296             0       4.21344             0             0      0.186057   2.41472e-16      0.191058        102582        103265        159521   4.42422e-16
   0.00700701       288.057       288.252      0.158181       23.0019      -1.51742             0       19.4043      0.927358             0       26.3248       0.64587             0       4.76478             0             0      0.178948   2.74827e-16      0.221963        102581        103264        159374   5.03535e-16
   0.00750751       288.158       288.263      0.157951       21.2754      -1.14595             0       19.1697       1.00452             0       25.4345       1.15716             0       5.27015             0             0      0.174031   3.07396e-16      0.243344        102579        103264        159192   5.63206e-16
   0.00800801       288.258       288.274      0.157791       19.5521     -0.775525             0       18.9331       1.08159             0       24.5467       1.66978             0       5.77543             0             0      0.169168   3.40068e-16      0.264486        102577        103263        159011   6.23069e-16
   0.00850851       288.293       288.293      0.161923       18.0178     -0.468602             0       18.5757       1.15262             0       23.8167         2.264             0       6.27447             0             0       0.16767   3.79158e-16      0.271001        102576        103262        158810   6.94689e-16
   0.00900901       288.328       288.312       0.16613       16.5029     -0.167825             0       18.2169       1.22311             0       23.0953       2.85006             0        6.7758             0             0      0.166231   4.18618e-16      0.277258        102574        103261        158611   7.66986e-16
   0.00950951       288.307       288.327      0.174425       16.0453     -0.202361             0       17.7791       1.26425             0         22.84       2.99107             0       7.40254             0             0      0.168028   4.78203e-16      0.269444        102573        103260        158448   8.76158e-16
      0.01001       288.286       288.343      0.182679       15.6071     -0.242751             0       17.3413       1.30483             0         22.61        3.1214             0       8.03337             0             0      0.169844   5.37476e-16       0.26155        102572        103259        158287   9.84758e-16
    0.0105105       288.235       288.347      0.188963       16.1234     -0.569963             0       16.9061        1.3176             0       23.6183       2.72779             0       8.86442             0             0      0.172553   5.81428e-16      0.249768        102571        103257        158229   1.06529e-15
     0.011011       288.184       288.351      0.195193       16.6478     -0.898775             0       16.4709       1.33025             0        24.669       2.33307             0       9.69632             0             0      0.175247   6.24712e-16      0.238055        102570        103256        158174   1.14459e-15
    0.0115115       288.139       288.339       0.19901       17.5269       -1.2987             0       16.0406        1.3375             0       27.6005       1.88905             0       10.5659             0             0      0.177239   6.38319e-16      0.229397        102569        103254        158286   1.16952e-15
     0.012012       288.092       288.328      0.202961       18.3982      -1.69441             0       15.6097       1.34494             0         30.57       1.44875             0       11.4343             0             0      0.179233   6.51674e-16      0.220724        102568        103253        158402   1.19399e-15
    0.0125125       288.035       288.311      0.212388       18.9523      -1.91857             0       15.1544       1.35983             0       35.0845       1.15916             0       12.2591             0             0      0.181359   6.54823e-16      0.211481        102566        103251        158734   1.19976e-15
     0.013013       287.978       288.294      0.222069       19.4984      -2.14672             0       14.7006        1.3743             0       39.6023       0.86655             0       13.0889             0             0      0.183492   6.57703e-16      0.202209        102565        103249        159073   1.20504e-15
    0.0135135       287.908       288.285      0.241246       19.7449      -2.52421             0       14.3069       1.37278             0       44.2417      0.460968             0       14.1035             0             0      0.185869   6.50533e-16      0.191873        102564        103247        159666    1.1919e-15
     0.014014       287.839       288.276      0.260491       19.9934      -2.91253             0       13.9157       1.37081             0       48.8466     0.0522817             0       15.1256             0             0      0.188237   6.43222e-16      0.181579        102563        103245        160266    1.1785e-15
    0.0145145       287.781       288.276      0.282134       20.3128      -3.67644             0       13.6095       1.35271             0       52.2525     -0.464165             0       16.4037             0             0      0.190274   6.31033e-16       0.17272        102562        103243        161138   1.15617e-15
     0.015015       287.723       288.275      0.303672       20.6375      -4.44878             0       13.3035       1.33479             0       55.6126     -0.975516             0       17.6807             0             0      0.192286   6.18893e-16      0.163973        102561        103240        162018   1.13393e-15
    0.0155155         287.7       288.278      0.321836       21.1345      -5.49384             0       13.0065       1.32238             0       57.4878      -1.32211             0       18.9242             0             0      0.193477   6.08298e-16      0.158794        102558        103238        163147   1.11451e-15
     0.016016       287.678       288.281      0.339871       21.6314      -6.53937             0       12.7095        1.3106             0        59.323      -1.66074             0       20.1624             0             0      0.194651   5.97981e-16      0.153692        102555        103236        164283   1.09561e-15
    0.0165165       287.683       288.286      0.353985       22.1242      -7.59928             0       12.4145       1.31778             0       59.9491      -1.75843             0       21.2391             0             0      0.195293   5.96068e-16      0.150898        102550        103234        165603   1.09211e-15
     0.017017       287.688       288.292      0.367957       22.6129        -8.656             0       12.1201       1.32575             0       60.5505      -1.85091             0       22.3117             0             0      0.195921   5.94661e-16      0.148172        102544        103231        166927   1.08953e-15
    0.0175175       287.714       288.302      0.377895       22.9848      -9.62205             0       11.8442       1.35591             0       60.4497      -1.79555             0       23.2714             0             0      0.196106   6.07643e-16      0.147364        102537        103230        168361   1.11331e-15
     0.018018       287.739       288.311       0.38766       23.3508      -10.5827             0       11.5682       1.38697             0       60.3272       -1.7384             0       24.2294             0             0       0.19628   6.21326e-16      0.146608        102529        103228        169798   1.13838e-15
    0.0185185       287.782       288.323       0.39282       23.5616      -11.3981             0       11.2907       1.44214             0        59.623      -1.63344             0       25.1434             0             0      0.196131   6.53791e-16      0.147257        102519        103226        171309   1.19787e-15
     0.019019       287.824       288.335      0.397794       23.7621      -12.2052             0       11.0125        1.4983             0       58.8858      -1.52802             0       26.0565             0             0       0.19598   6.86323e-16      0.147912        102509        103224        172822   1.25747e-15
    0.0195195       287.857       288.346      0.398048       23.7029      -12.8025             0       10.7126       1.57925             0       57.3115      -1.41128             0       26.9449             0             0      0.195794   7.20576e-16      0.148724        102499        103222        174409   1.32023e-15
      0.02002       287.889       288.357       0.39812        23.631      -13.3902             0        10.412        1.6614             0       55.7082      -1.29359             0       27.8327             0             0      0.195615   7.54271e-16      0.149502        102489        103220        175998   1.38196e-15
    0.0205205       287.895       288.367      0.393834       23.2549       -13.746             0       10.0951       1.77224             0       53.4094      -1.15305             0       28.7052             0             0      0.195619   7.74599e-16      0.149484        102480        103219        177632   1.41921e-15
     0.021021       287.901       288.377      0.389534       22.8688      -14.0932             0       9.77879        1.8843             0       51.1072      -1.00995             0       29.5796             0             0      0.195639   7.94878e-16      0.149396        102470        103217        179264   1.45636e-15
    0.0215215       287.888       288.388      0.384921       22.2527      -14.2412             0       9.47674        2.0243             0       48.7249     -0.808599             0       30.4947             0             0       0.19602   8.14067e-16      0.147741        102462        103215        180879   1.49152e-15
     0.022022       287.874       288.398       0.38045        21.632      -14.3842             0       9.17687       2.16547             0        46.356     -0.604302             0       31.4129             0             0       0.19644   8.33468e-16      0.145911        102454        103214        182489   1.52707e-15
    0.0225225       287.823       288.409       0.37906       20.9075      -14.4166             0       8.92439       2.33192             0       44.2771     -0.336075             0       32.3992             0             0      0.197731    8.5747e-16      0.140299        102448        103213        184018   1.57104e-15
     0.023023        287.77       288.419      0.377645        20.182       -14.448             0       8.67473       2.49927             0       42.2021    -0.0656987             0       33.3915             0             0      0.199055   8.81447e-16      0.134544        102441        103211        185541   1.61497e-15
    0.0235235       287.688       288.426       0.37572       19.4348      -14.4571             0       8.48342        2.6852             0       40.2072      0.249227             0       34.5065             0             0      0.201061   9.04913e-16      0.125821        102437        103210        186935   1.65797e-15
     0.024024       287.606       288.433      0.373543       18.6855      -14.4651             0        8.2944       2.87196             0       38.2062      0.569763             0       35.6289             0             0      0.203047   9.27977e-16      0.117187        102432        103209        188319   1.70023e-15
    0.0245245       287.538       288.437      0.366367       17.8942       -14.449             0       8.15082       3.07525             0       36.0825       1.00155             0       36.8986             0             0      0.204624    9.4306e-16      0.110332        102429        103208        189493   1.72786e-15
     0.025025       287.472       288.442      0.359034       17.0975      -14.4291             0       8.00897       3.27947             0       33.9642       1.44591             0       38.1761             0             0      0.206158   9.57735e-16      0.103659        102427        103207        190650   1.75475e-15
    0.0255255       287.432       288.443      0.348692       16.1977      -14.3378             0       7.90007       3.50122             0       31.9471       2.12931             0       39.6019             0             0      0.206897   9.64644e-16      0.100449        102426        103207        191461   1.76741e-15
     0.026026       287.393       288.444      0.338444       15.2933       -14.244             0       7.79269       3.72388             0       29.9612       2.83088             0       41.0357             0             0      0.207613   9.71346e-16     0.0973366        102425        103206        192247   1.77969e-15
    0.0265265        287.37       288.441      0.329912       14.3028      -14.1044             0       7.71284       3.96321             0       28.5435       3.86387             0       42.6178             0             0      0.207916   9.74274e-16     0.0960187        102425        103205        192566   1.78505e-15
     0.027027       287.348       288.438       0.32155       13.3107      -13.9653             0       7.63376       4.20309             0       27.1759       4.91682             0       44.2057             0             0      0.208217    9.7704e-16     0.0947097        102426        103205        192855   1.79012e-15
    0.0275275       287.339       288.432      0.316166       12.2916      -13.8358             0       7.56832       4.45256             0       26.6846       6.31933             0       45.8966             0             0      0.208482   9.76948e-16     0.0935558        102428        103205        192636   1.78995e-15
     0.028028       287.331       288.426      0.310888       11.2702      -13.7054             0       7.50266       4.70196             0       26.2408       7.73511             0       47.5849             0             0      0.208751   9.76648e-16     0.0923868        102430        103205        192390    1.7894e-15
    0.0285285       287.349       288.418      0.307381        10.211      -13.5606             0       7.43327       4.95017             0       26.5983       9.37455             0       49.2295             0             0      0.209079   9.72829e-16     0.0909633        102433        103205        191692    1.7824e-15
     0.029029       287.368        288.41      0.303887       9.14599      -13.4102             0       7.36317       5.19797             0       26.9878       11.0144             0       50.8608             0             0      0.209399   9.68924e-16     0.0895718        102436        103205        190972   1.77525e-15
    0.0295295       287.406       288.402      0.300599       7.98637      -13.1684             0       7.28138        5.4393             0        27.898        12.661             0       52.2738             0             0      0.209599   9.63605e-16     0.0887011        102440        103206        189909    1.7655e-15
      0.03003       287.446       288.395      0.297294       6.82002      -12.9187             0       7.19909       5.68031             0       28.8277       14.2968             0       53.6677             0             0      0.209786   9.58223e-16     0.0878871        102444        103207        188831   1.75564e-15
    0.0305305         287.5       288.389      0.293714       5.54846      -12.5465             0       7.10908       5.91637             0       30.0627       15.7626             0       54.7606             0             0      0.209769   9.51845e-16     0.0879629        102448        103207        187528   1.74396e-15
     0.031031       287.555       288.383      0.290115       4.27237      -12.1676             0       7.01889       6.15216             0       31.3142       17.2119             0       55.8347             0             0      0.209729   9.45545e-16     0.0881327        102453        103208        186218   1.73242e-15
    0.0315315       287.607       288.377       0.28622       2.92785      -11.6889             0       6.92588       6.38392             0       32.8152       18.4113             0       56.6235             0             0      0.209363   9.40411e-16     0.0897246        102457        103209        184814   1.72301e-15
     0.032032       287.658       288.371      0.282395       1.58155      -11.2056             0       6.83259       6.61509             0       34.3356       19.5922             0       57.3949             0             0      0.208966   9.35572e-16     0.0914533        102462        103211        183411   1.71414e-15
    0.0325325       287.678       288.364        0.2796      0.209366      -10.6552             0       6.73512       6.83762             0       36.1383       20.5016             0       57.9132             0             0      0.208108   9.35047e-16     0.0951809        102466        103212        182030   1.71318e-15
     0.033033       287.697       288.357      0.277034      -1.16091      -10.1024             0       6.63698       7.05881             0        37.959       21.3891             0       58.4124             0             0      0.207244   9.34599e-16     0.0989399        102471        103214        180656   1.71236e-15
    0.0335335       287.699       288.349       0.27771       -2.5041      -9.51489             0       6.52936       7.26127             0       40.0356       21.9657             0       58.6409             0             0      0.206277   9.35233e-16      0.103143        102475        103216        179383   1.71352e-15
     0.034034       287.701        288.34      0.278653      -3.83818      -8.92854             0       6.42052       7.46143             0        42.122       22.5136             0       58.8442             0             0      0.205285   9.35792e-16      0.107457        102479        103218        178122   1.71455e-15
    0.0345345       287.703       288.331      0.283254      -5.04732      -8.35764             0       6.29502        7.6301             0       44.3433       22.6696             0       58.7033             0             0      0.203946   9.35319e-16      0.113276        102481        103220        177009   1.71368e-15
     0.035035       287.705       288.322       0.28798      -6.23466      -7.79333             0       6.16749       7.79538             0       46.5654       22.7913             0       58.5313             0             0      0.202519   9.34693e-16       0.11948        102484        103222        175909   1.71253e-15
    0.0355355       287.715       288.314      0.294361      -7.13244      -7.31655             0       6.01303       7.91565             0       48.7986       22.4572             0       57.9455             0             0      0.199916    9.3203e-16      0.130797        102484        103225        174976   1.70765e-15
     0.036036       287.725       288.305      0.300615      -7.99441      -6.85151             0       5.85556        8.0316             0       51.0276       22.0868             0       57.3246             0             0      0.197297   9.29138e-16      0.142185        102485        103228        174056   1.70235e-15
    0.0365365        287.74         288.3      0.305226      -8.39494      -6.53775             0        5.6594       8.09177             0       53.2029       21.2471             0       56.2508             0             0      0.194466   9.23305e-16      0.154496        102484        103231        173293   1.69167e-15
     0.037037       287.756       288.294      0.309628      -8.76227       -6.2347             0        5.4595       8.14707             0       55.3704       20.3724             0       55.1394             0             0      0.191685   9.17281e-16      0.166588        102483        103235        172540   1.68063e-15
    0.0375375       287.783       288.291      0.311392      -8.71423      -6.06563             0       5.21293       8.14129             0       57.4422       19.0614             0        53.558             0             0      0.189533   9.08871e-16      0.175942        102482        103239        171923   1.66522e-15
     0.038038       287.812       288.288      0.313021      -8.65332      -5.89964             0       4.96199       8.13059             0       59.5086       17.7248             0       51.9392             0             0      0.187366   9.00234e-16      0.185363        102480        103242        171316    1.6494e-15
    0.0385385       287.864       288.285      0.313002      -8.43593      -5.77122             0       4.65797       8.05988             0       61.5108       16.0765             0       49.8664             0             0      0.185009    8.8884e-16       0.19561        102479        103247        170829   1.62852e-15
     0.039039       287.915       288.283      0.312732      -8.21728       -5.6416             0       4.34923       7.98438             0       63.5116       14.4169             0       47.7613             0             0      0.182676   8.77536e-16      0.205754        102478        103251        170350   1.60781e-15
    0.0395395       287.965       288.281      0.309507      -7.98385      -5.49787             0       3.98481       7.85223             0       65.4943       12.6236             0       45.2737             0             0      0.180625   8.67298e-16      0.214673        102477        103256        169964   1.58905e-15
      0.04004       288.012        288.28      0.305889      -7.74881      -5.35137             0       3.61661        7.7152             0       67.4552       10.8267             0       42.7655             0             0      0.178664   8.57494e-16      0.223198        102476        103260        169582   1.57109e-15
    0.0405405       288.032       288.281      0.297753      -7.49532      -5.17301             0       3.20511       7.52192             0       69.1646       8.98718             0       40.0191             0             0      0.177745   8.52677e-16      0.227194        102475        103266        169244   1.56226e-15
     0.041041       288.051       288.283      0.289398      -7.24188      -4.98792             0       2.79208        7.3236             0       70.8053        7.1459             0       37.2614             0             0      0.176879   8.48139e-16      0.230962        102474        103271        168907   1.55395e-15
    0.0415415       288.058       288.288      0.278595       -6.9889      -4.72746             0       2.36197       7.06886             0        71.678       5.28441             0       34.3758             0             0      0.176597   8.46721e-16      0.232185        102474        103276        168582   1.55135e-15
     0.042042       288.066       288.293      0.267752      -6.73707      -4.45712             0       1.93196       6.80923             0       72.4623       3.43013             0       31.4856             0             0      0.176342   8.45451e-16      0.233296        102474        103282        168260   1.54902e-15
    0.0425425       288.086         288.3      0.256462      -6.49781      -4.07916             0       1.50295       6.49623             0       72.2819       1.65441             0       28.5449             0             0      0.176367   8.45788e-16      0.233188        102474        103287        167973   1.54964e-15
     0.043043       288.107       288.308      0.245059      -6.25403      -3.69349             0       1.07367       6.17931             0       72.0527     -0.102178             0       25.6096             0             0      0.176419   8.46279e-16      0.232961        102474        103292        167693   1.55054e-15
    0.0435435       288.148       288.321      0.232459      -5.96213      -3.22582             0      0.641509       5.82086             0       71.3047      -1.65548             0       22.7316             0             0       0.17676   8.48397e-16      0.231478        102474        103297        167477   1.55442e-15
     0.044044       288.189       288.335      0.219834      -5.65875      -2.76045             0      0.210786       5.45884             0        70.504      -3.16975             0       19.8703             0             0      0.177136   8.50703e-16      0.229842        102473        103303        167270   1.55865e-15
    0.0445445       288.237       288.353      0.206954      -5.23646      -2.31904             0     -0.205049       5.05984             0       69.1571      -4.27956             0       17.1815             0             0      0.177875   8.54957e-16      0.226632        102473        103308        167151   1.56644e-15
     0.045045       288.283        288.37      0.194485      -4.80321      -1.88974             0     -0.615315       4.65659             0       67.7098      -5.32763             0       14.5163             0             0      0.178661   8.59566e-16      0.223212        102473        103313        167044   1.57489e-15
    0.0455455       288.317       288.385       0.18617      -4.25932      -1.58288             0     -0.969272       4.21026             0       65.2482      -5.75138             0       12.0895             0             0      0.179936   8.67775e-16      0.217669        102473        103317        167054   1.58993e-15