#           y             T         TMean   TPrime2Mean           U_x           U_y           U_z       UMean_x       UMean_y       UMean_z UPrime2Mea... UPrime2Mea... UPrime2Mea... UPrime2Mea... UPrime2Mea... UPrime2Mea...            O2           H2O          C3H8             p         pMean   pPrime2Mean           CO2
  1.11022e-19       287.849       288.048     0.0889097       23.8363    8.9646e-18             0       22.1803  -2.97735e-16             0       11.4764   1.66675e-16             0   1.13889e-16             0             0      0.229999   1.27636e-19   2.25389e-06        102620        103242        132851   2.33854e-19
  0.000500501       287.849       288.049     0.0889453       23.8546     0.0435697             0       22.1818      0.015671             0       11.5005     -0.159603             0     0.0318959             0             0      0.229997   2.48819e-19   1.26908e-05        102620        103241        132790   4.55883e-19
     0.001001       287.849       288.049     0.0889821       23.8731     0.0871532             0       22.1832      0.031342             0       11.5247     -0.319215             0     0.0639234             0             0      0.229995   3.71074e-19   2.34244e-05        102619        103241        132728   6.79877e-19
    0.0015015        287.85       288.053     0.0895778       23.9313      0.137637             0        22.186      0.047039             0       11.5838     -0.483278             0      0.161586             0             0      0.229958   1.02847e-18   0.000182182        102619        103241        132550   1.88434e-18
     0.002002       287.852       288.057     0.0901946       23.9896      0.188204             0       22.1887     0.0627275             0       11.6433     -0.647422             0      0.259682             0             0       0.22992   1.69336e-18   0.000346445        102618        103241        132372   3.10256e-18
    0.0025025       287.859        288.07     0.0960448       24.0821       0.25932             0        22.195     0.0763013             0       11.8063     -0.831763             0      0.465703             0             0      0.229567   4.22715e-18    0.00188167        102617        103240        132155   7.74493e-18
     0.003003       287.868       288.084      0.101979        24.175      0.330574             0       22.2013      0.089877             0         11.97      -1.01642             0      0.672896             0             0      0.229203   6.79267e-18    0.00346379        102615        103240        131939   1.24455e-17
    0.0035035        287.91       288.106      0.121897        24.342      0.424622             0        22.223      0.103769             0       12.2433      -1.25256             0       1.07431             0             0      0.227053   1.46171e-17     0.0128131        102614        103239        131744   2.67812e-17
     0.004004       287.954       288.128      0.141927       24.5086       0.51897             0       22.2449      0.117633             0       12.5175      -1.48956             0       1.47754             0             0      0.224868   2.25014e-17     0.0223155        102612        103238        131551   4.12267e-17
    0.0045045       288.073       288.142      0.175943       24.6314      0.650483             0       22.2964      0.128094             0       12.9011       -1.8334             0        2.1061             0             0      0.218317   3.78158e-17     0.0507949        102609        103237        131432   6.92855e-17
   0.00500501       288.192       288.156      0.209956       24.7532      0.782451             0       22.3484      0.138612             0       13.2846      -2.17719             0       2.73469             0             0       0.21173    5.3153e-17     0.0794335        102607        103236        131314   9.73862e-17
   0.00550551       288.356       288.161      0.243665       24.7725      0.959443             0       22.4534       0.15483             0       13.6554      -2.51595             0       3.36779             0             0      0.201522   7.07532e-17      0.123818        102603        103235        131197   1.29633e-16
   0.00600601       288.518       288.166      0.277135       24.7904       1.13553             0       22.5573      0.171053             0       14.0238      -2.85432             0       3.99941             0             0      0.191333   8.82808e-17      0.168117        102599        103234        131079   1.61747e-16
   0.00650651       288.613       288.168        0.2909       24.6961       1.23749             0       22.5697      0.187778             0        14.197      -3.16117             0       4.51007             0             0      0.182756   9.98282e-17      0.205407        102595        103232        130865   1.82904e-16
   0.00700701       288.707       288.171      0.304118        24.595       1.34075             0       22.5776      0.204538             0       14.3651      -3.46536             0       5.01959             0             0      0.174241   1.11283e-16      0.242429        102590        103231        130650   2.03891e-16
   0.00750751        288.72       288.196       0.27887       24.0102       1.53605             0       22.2762      0.223802             0       14.1719      -3.58255             0       5.44882             0             0      0.170051   1.16213e-16       0.26065        102585        103230        130359   2.12923e-16
   0.00800801       288.731       288.221      0.253389       23.4128       1.73396             0       21.9664      0.243247             0       13.9686      -3.69496             0       5.87775             0             0      0.165905   1.21112e-16      0.278675        102580        103229        130066   2.21899e-16
   0.00850851        288.68        288.26      0.213612       22.0403       2.09156             0       21.1408       0.27377             0       13.1537      -3.51336             0       6.28752             0             0      0.164526   1.24132e-16       0.28467        102578        103228        129695   2.27433e-16
   0.00900901       288.628       288.298      0.174294       20.6646       2.44469             0       20.3068      0.304159             0       12.3299      -3.32678             0       6.69181             0             0      0.163178   1.27168e-16      0.290532        102575        103227        129321   2.32996e-16
   0.00950951       288.472       288.298       0.15995        19.116       2.55359             0        19.007      0.327295             0       11.0229      -2.86871             0       6.79667             0             0      0.163514   1.31048e-16      0.289071        102574        103226        128806   2.40104e-16
      0.01001       288.317       288.297       0.14618       17.5751       2.64778             0       17.7068      0.349772             0       9.72918      -2.41267             0        6.8955             0             0      0.163832    1.3501e-16      0.287687        102573        103226        128288   2.47364e-16
    0.0105105       288.168       288.254      0.160474        16.417       2.02075             0       16.3857      0.340007             0       9.08129      -2.05619             0       6.69919             0             0      0.163296   1.43038e-16      0.290018        102572        103226        127641   2.62071e-16
     0.011011       288.021       288.211      0.175213         15.26       1.39763             0       15.0751       0.32905             0       8.46715      -1.71593             0       6.50985             0             0      0.162695   1.51173e-16      0.292629        102571        103226        126994   2.76978e-16
    0.0115115       287.944       288.153      0.209777       14.1497      0.948234             0       14.2273      0.265145             0       9.35301       -2.0973             0       6.63028             0             0      0.159229   1.64135e-16        0.3077        102569        103226        126317   3.00726e-16
     0.012012       287.868       288.095      0.244448       13.0465      0.510023             0       13.3922      0.201263             0       10.2721      -2.49329             0       6.76369             0             0      0.155704   1.77037e-16      0.323026        102567        103226        125639   3.24365e-16
    0.0125125       287.789       288.062      0.283422       12.2307      0.526796             0       13.0753      0.138298             0       12.5444      -3.48442             0       7.42504             0             0      0.149782   1.87528e-16      0.348773        102564        103225        124945   3.43587e-16
     0.013013       287.711        288.03      0.321856       11.4288      0.542018             0       12.7666      0.075251             0       14.8491      -4.47952             0       8.09869             0             0      0.143796   1.97841e-16        0.3748        102561        103224        124251   3.62483e-16
    0.0135135       287.646       288.037      0.340024       11.1433      0.499143             0       12.7601    0.00915602             0        18.365      -5.62346             0        9.2332             0             0      0.135387   2.01472e-16      0.411359        102559        103223        123537   3.69135e-16
     0.014014       287.583       288.044      0.357384       10.8697      0.461282             0       12.7606    -0.0565792             0       21.8862      -6.76336             0       10.3796             0             0      0.126968   2.04962e-16      0.447965        102556        103221        122824   3.75529e-16
    0.0145145       287.567       288.071      0.346667        11.011       0.59751             0       13.0036     -0.109824             0       25.5905      -7.76276             0       11.9403             0             0      0.118172   2.03565e-16      0.486208        102554        103219        122091    3.7297e-16
     0.015015       287.551       288.099       0.33575       11.1581      0.736561             0        13.253     -0.162841             0       29.2678      -8.75358             0       13.5104             0             0      0.109496   2.02137e-16      0.523931        102551        103217        121360   3.70353e-16
    0.0155155       287.558        288.13      0.318378       11.4918      0.966869             0       13.7101     -0.208483             0       32.0696      -9.46687             0       15.3878             0             0      0.104683   1.99686e-16      0.544858        102548        103214        120693   3.65862e-16
     0.016016       287.564       288.161      0.300948       11.7996       1.19395             0       14.1746     -0.253398             0       34.8619      -10.1616             0        17.268             0             0      0.100067   1.97316e-16      0.564925        102545        103211        120031   3.61519e-16
    0.0165165       287.554       288.183      0.281722       11.3221       1.32337             0        14.863      -0.27635             0       37.3678      -10.2937             0       19.2327             0             0      0.101435   1.97377e-16      0.558978        102542        103208        119538   3.61632e-16
     0.017017       287.545       288.204      0.262488       10.8536       1.45684             0       15.5611     -0.297684             0       39.8996      -10.3792             0       21.1939             0             0      0.102917   1.97419e-16      0.552535        102538        103204        119055   3.61709e-16
    0.0175175       287.551       288.209      0.243005       10.6396        1.7051             0       16.5338     -0.273056             0       43.1664      -9.14066             0       23.0548             0             0      0.107641   1.96915e-16      0.531996        102536        103201        118875   3.60785e-16
     0.018018       287.559       288.212       0.22399       10.4961       1.98602             0       17.5026     -0.246994             0       46.4321      -7.86651             0       24.9129             0             0       0.11241   1.96214e-16       0.51126        102533        103197        118709   3.59501e-16
    0.0185185        287.61       288.194      0.217504       12.2382       3.14165             0       18.3668     -0.182526             0       49.6704      -5.63935             0       26.6982             0             0      0.118395   1.90239e-16      0.485238        102526        103193        118945   3.48553e-16
     0.019019       287.659       288.176      0.211156       14.0127       4.31331             0       19.2157     -0.119017             0       52.8458      -3.42138             0       28.4873             0             0      0.124568   1.83877e-16      0.458399        102520        103188        119197   3.36897e-16
    0.0195195       287.638       288.157      0.208325       16.6076       5.89083             0       19.6778    -0.0798028             0       54.4326      -1.43621             0       30.3706             0             0      0.135505   1.67711e-16      0.410846        102509        103184        119883   3.07278e-16
      0.02002       287.614       288.138      0.205267       19.1742       7.45228             0       20.1292    -0.0414145             0       55.9231      0.528108             0       32.2693             0             0      0.146682   1.51324e-16       0.36225        102498        103180        120583   2.77253e-16
    0.0205205       287.512       288.134      0.196732       21.0608       8.62796             0       20.3214    -0.0228375             0       55.1019       1.99212             0       34.5359             0             0      0.163618   1.29606e-16      0.288618        102485        103175        121651   2.37462e-16
     0.021021       287.413        288.13      0.188025       22.9094       9.78749             0       20.5043   -0.00479152             0       54.1928       3.44054             0       36.8155             0             0      0.180384   1.08345e-16      0.215723        102471        103171        122728   1.98507e-16
    0.0215215       287.379       288.134      0.175394       23.8913        10.579             0       20.4724    0.00114321             0       51.2786       4.53318             0       39.3921             0             0      0.193273   9.74848e-17      0.159682        102456        103166        124047    1.7861e-16
     0.022022       287.349       288.139      0.162759       24.8485       11.3601             0       20.4289    0.00599993             0       48.3175       5.61432             0       41.9763             0             0      0.205815   8.73057e-17      0.105154        102441        103162        125372    1.5996e-16
    0.0225225       287.384       288.152      0.150053       25.2673       11.9162             0       20.1326    -0.0125654             0       44.3383       6.44571             0       44.7255             0             0      0.210788    9.1916e-17     0.0835295        102424        103157        126817   1.68407e-16
     0.023023        287.42       288.166      0.137517       25.6596       12.4603             0        19.823    -0.0329459             0       40.3832       7.26161             0       47.4825             0             0      0.215659   9.71773e-17     0.0623526        102407        103152        128267   1.78047e-16
    0.0235235       287.457       288.188      0.128521       25.5018       12.7544             0       19.2387    -0.0909721             0       36.9268       7.75618             0       50.3988             0             0      0.218394   1.15939e-16     0.0504617        102390        103147        129807   2.12422e-16
     0.024024       287.494       288.211      0.119707       25.3172        13.033             0       18.6506     -0.150916             0       33.5665       8.24664             0       53.3206             0             0      0.221067   1.35305e-16     0.0388385        102372        103143        131355   2.47905e-16
    0.0245245       287.535       288.237      0.114515       24.5992       13.0047             0       17.9867     -0.248892             0        32.114        8.6555             0       56.3498             0             0      0.222519    1.6665e-16     0.0325271        102356        103138        133048   3.05334e-16
     0.025025       287.576       288.263      0.109449       23.8697       12.9704             0       17.3298     -0.347485             0       30.7208       9.07956             0       59.3798             0             0      0.223907   1.97997e-16     0.0264925        102341        103134        134754   3.62768e-16
    0.0255255       287.617       288.285      0.106814       22.9222       12.8235             0       16.8053     -0.457815             0       30.4542       9.79228             0       62.4259             0             0      0.224085   2.29391e-16     0.0257171        102327        103129        136685   4.20286e-16
     0.026026       287.657       288.306       0.10419       21.9761       12.6816             0       16.2838     -0.568615             0       30.1739        10.508             0       65.4634             0             0      0.224242   2.60567e-16     0.0250362        102314        103124        138635   4.77408e-16
    0.0265265       287.687       288.319      0.101783       21.0551       12.6282             0       15.8151     -0.687996             0       29.6457       11.2784             0       68.3442             0             0      0.224003   2.87793e-16     0.0260763        102302        103119        140917    5.2729e-16
     0.027027       287.717       288.331     0.0993328       20.1344       12.5802             0       15.3413     -0.808258             0       29.0975       12.0372             0        71.211             0             0       0.22376   3.14969e-16     0.0271322        102291        103113        143220   5.77081e-16
    0.0275275       287.745        288.34     0.0961359       19.2175       12.6277             0       14.7787     -0.943947             0       28.1998       12.5947             0       73.8313             0             0      0.223453   3.41273e-16     0.0284653        102281        103107        145878   6.25277e-16
     0.028028       287.772       288.349     0.0929804       18.2936       12.6761             0       14.2106      -1.08045             0       27.2963       13.1442             0       76.4291             0             0       0.22315   3.67362e-16      0.029781        102272        103100        148552   6.73076e-16
    0.0285285       287.795       288.355      0.090521       17.2512       12.7394             0       13.5511      -1.23058             0       26.2971       13.5572             0       78.6487             0             0      0.222915   3.89801e-16     0.0308031        102264        103093        151505   7.14188e-16
     0.029029       287.819       288.362     0.0881897       16.1961        12.799             0       12.8864      -1.38118             0       25.3127       13.9667             0       80.8358             0             0      0.222686   4.11698e-16     0.0317979        102257        103087        154461   7.54308e-16
    0.0295295       287.841       288.362     0.0879386       14.9332       12.7976             0       12.1358      -1.53939             0       24.5689       14.3186             0       82.4956             0             0      0.222559   4.24784e-16     0.0323503        102251        103080        157480   7.78284e-16
      0.03003       287.862       288.363     0.0877351       13.6561       12.7894             0       11.3809      -1.69812             0       23.8658       14.6738             0       84.1145             0             0      0.222438   4.37328e-16     0.0328774        102246        103073        160486   8.01267e-16
    0.0305305       287.878       288.362     0.0882781       12.1567       12.6751             0       10.5591      -1.86496             0       23.8008       15.0817             0       85.0936             0             0      0.222408   4.41377e-16     0.0330087        102244        103066        163276   8.08685e-16
     0.031031       287.893        288.36     0.0887678       10.6461       12.5519             0       9.73377      -2.03151             0       23.7913       15.4983             0       86.0284             0             0      0.222381   4.45197e-16     0.0331279        102242        103060        166039   8.15684e-16
    0.0315315         287.9       288.358     0.0884513       8.96683       12.2921             0       8.85629      -2.19365             0       24.6212       16.0451             0       86.2933             0             0      0.222395   4.45553e-16     0.0330641        102242        103054        168396   8.16336e-16
     0.032032       287.907       288.357      0.088135       7.28346       12.0228             0       7.97668       -2.3552             0       25.4919       16.5952             0       86.5187             0             0      0.222412   4.45784e-16     0.0329897        102243        103049        170728   8.16759e-16
    0.0325325       287.909       288.354     0.0878221       5.53993       11.6144             0       7.06594      -2.50816             0       26.9591       17.1937             0       86.1666             0             0      0.222465     4.442e-16     0.0327608        102246        103044        172689   8.13858e-16
     0.033033        287.91       288.352     0.0875543       3.80302       11.1971             0       6.15464      -2.66029             0         28.42       17.7792             0       85.7824             0             0      0.222521   4.42425e-16     0.0325165        102249        103040        174639   8.10605e-16
    0.0335335       287.909        288.35     0.0879238       2.15974       10.6549             0        5.2353      -2.80082             0        29.793       18.1813             0       84.9448             0             0      0.222628   4.37939e-16     0.0320537        102254        103036        176435   8.02385e-16
     0.034034       287.907       288.348     0.0883165       0.52666       10.1099             0       4.31583      -2.94053             0       31.1074       18.5485             0       84.0778             0             0      0.222734   4.33334e-16     0.0315917        102259        103033        178234   7.93949e-16
    0.0345345       287.904       288.348     0.0890274     -0.966433       9.52743             0       3.39463      -3.06909             0       31.6177       18.4358             0       82.8074             0             0      0.222837   4.27118e-16     0.0311408        102265        103030        180069    7.8256e-16
     0.035035       287.901       288.348     0.0897379      -2.43912       8.94454             0       2.47284      -3.19713             0       32.0493       18.2718             0       81.5051             0             0      0.222938   4.20817e-16     0.0307048        102271        103028        181901   7.71016e-16
    0.0355355       287.894        288.35     0.0904439      -3.64063       8.35597             0       1.54309      -3.31844             0       31.4363       17.4264             0       79.7777             0             0      0.222992    4.1339e-16     0.0304675        102278        103027        183705   7.57407e-16
     0.036036       287.887       288.352     0.0911521      -4.82161       7.76534             0      0.612138      -3.43948             0       30.7868       16.5321             0       78.0142             0             0      0.223041   4.05867e-16     0.0302538        102286        103026        185482   7.43624e-16
    0.0365365       287.872       288.355     0.0918886      -5.73779       7.14821             0     -0.334298      -3.55699             0       29.6668       15.0074             0       75.7848             0             0      0.223021   3.97124e-16     0.0303443        102293        103026        186902   7.27605e-16
     0.037037       287.855       288.358     0.0926503      -6.66215       6.53984             0      -1.28135      -3.67354             0       28.5787       13.4682             0       73.5191             0             0      0.222974   3.88382e-16     0.0305494        102299        103027        188265   7.11589e-16
    0.0375375       287.828       288.361     0.0937288      -7.68875       6.04109             0      -2.23614      -3.77811             0       27.8909        11.746             0       70.7978             0             0      0.222596   3.79655e-16     0.0321899        102306        103030        188910   6.95598e-16
     0.038038       287.801       288.364     0.0948525      -8.71392       5.54993             0      -3.18932      -3.88053             0       27.2823       10.0575             0       68.0456             0             0      0.222182   3.71493e-16     0.0339889        102313        103033        189484   6.80644e-16
    0.0385385       287.777       288.366     0.0965273      -9.72191       5.15096             0      -4.12287      -3.95671             0       27.6364       8.77811             0       64.9169             0             0      0.221325   3.70203e-16     0.0377157        102320        103037        189208    6.7828e-16
     0.039039       287.755       288.367     0.0982758      -10.6998        4.7548             0      -5.05147       -4.0296             0       28.0917        7.5634             0       61.7696             0             0      0.220367   3.71367e-16     0.0418809        102327        103042        188867   6.80414e-16
    0.0395395       287.759       288.367      0.100896      -11.3219       4.39198             0      -5.92153      -4.06363             0       29.7424       7.11329             0       58.4022             0             0      0.218218   4.01546e-16      0.051228        102334        103049        187771   7.35706e-16
      0.04004       287.767       288.366      0.103601      -11.9239       4.03599             0      -6.78293      -4.09376             0       31.4947       6.73064             0       55.0258             0             0      0.215873   4.37211e-16     0.0614237        102341        103055        186627   8.01053e-16
    0.0405405       287.814       288.363      0.107283      -12.2951       3.75845             0      -7.54471      -4.07892             0       34.4175        7.1237             0       51.5458             0             0      0.211283   5.35976e-16     0.0813772        102348        103064        184939   9.82008e-16
     0.041041       287.861        288.36      0.110977      -12.6585       3.48221             0      -8.29404      -4.05977             0       37.4033       7.56479             0       48.0625             0             0      0.206718    6.3637e-16      0.101227        102354        103072        183227   1.16595e-15
    0.0415415       287.901       288.357      0.114802      -12.9339       3.22038             0        -8.904      -3.99232             0       41.0932       8.54366             0       44.5416             0             0       0.20242   7.55002e-16      0.119913        102360        103081        181256    1.3833e-15
     0.042042       287.938       288.354      0.118599      -13.1991       2.95883             0      -9.49898      -3.92039             0       44.7844       9.54071             0       41.0245             0             0      0.198351   8.69307e-16      0.137606        102366        103090        179290   1.59273e-15
    0.0425425       287.937       288.351      0.122082      -13.3523       2.70037             0      -9.93069      -3.79953             0       48.4893       10.7359             0       37.5486             0             0       0.19677   9.36442e-16      0.144481        102370        103099        177390   1.71574e-15
     0.043043       287.937       288.348      0.125472      -13.4796       2.44507             0      -10.3477       -3.6737             0       52.1804       11.9183             0       34.0874             0             0      0.195315    1.0003e-15      0.150803        102375        103108        175517   1.83273e-15
    0.0435435       287.937       288.345      0.127867      -13.3324       2.22327             0      -10.6079      -3.49502             0       55.7259       12.9639             0        30.783             0             0       0.19521   1.02929e-15       0.15126        102378        103117        173926   1.88586e-15
     0.044044       287.939       288.342      0.130104      -13.1398       2.00161             0      -10.8551      -3.31204             0       59.3144       13.9859             0        27.501             0             0      0.195199    1.0568e-15      0.151309        102382        103125        172370   1.93625e-15
    0.0445445       287.958       288.336      0.130685      -12.4784       1.78153             0      -10.9661      -3.08451             0       63.3488        14.763             0       24.4511             0             0      0.196162    1.0688e-15      0.147122        102384        103133        171167   1.95824e-15
     0.045045       287.976        288.33      0.131306      -11.7622        1.5552             0      -11.0661      -2.85401             0       67.5176       15.5116             0       21.4219             0             0      0.197212   1.07963e-15      0.142555        102387        103141        169992   1.97808e-15
    0.0455455       287.987       288.321      0.132324      -10.4918       1.26562             0      -11.0542       -2.5934             0       73.0458       15.9718             0       18.6018             0             0      0.199147    1.0786e-15      0.134144        102388        103149        169113   1.97619e-15