#           y             T         TMean   TPrime2Mean           U_x           U_y           U_z       UMean_x       UMean_y       UMean_z UPrime2Mea... UPrime2Mea... UPrime2Mea... UPrime2Mea... UPrime2Mea... UPrime2Mea...            O2           H2O          C3H8             p         pMean   pPrime2Mean           CO2
            0       287.087       288.406      0.197988       16.1212             0             0       13.1768             0             0       26.1741             0             0             0             0             0      0.229708   5.27487e-17    0.00126996        102508        103312        187024   9.66454e-17
  0.000500501       287.084       288.413      0.198382       16.1229     0.0567484             0       13.1805    0.00300663             0        26.164    -0.0588935             0     0.0599976             0             0       0.22966   5.61513e-17    0.00147772        102508        103312        187001    1.0288e-16
     0.001001        287.08        288.42      0.198779       16.1245      0.113522             0       13.1841    0.00601542             0       26.1542     -0.117771             0      0.120161             0             0      0.229612   5.95668e-17    0.00168642        102508        103312        186979   1.09138e-16
    0.0015015       287.058       288.432      0.200247       16.1331       0.18268             0       13.1938     0.0101058             0       26.2221     -0.168913             0      0.262976             0             0      0.229458   6.93582e-17    0.00235642        102508        103312        186910   1.27077e-16
     0.002002       287.037       288.445      0.201726       16.1416      0.251874             0       13.2036     0.0141901             0       26.2909     -0.220154             0      0.406235             0             0      0.229303   7.91809e-17    0.00303003        102508        103312        186841   1.45074e-16
    0.0025025       287.002       288.456      0.206054       16.1542      0.329648             0        13.227     0.0167676             0       26.5749     -0.296215             0      0.659827             0             0      0.228942   9.68245e-17    0.00459891        102507        103312        186728   1.77401e-16
     0.003003       286.968       288.467      0.210374       16.1668      0.407432             0       13.2505     0.0193145             0       26.8604     -0.372748             0      0.914275             0             0      0.228579   1.14533e-16    0.00617894        102507        103312        186614   2.09847e-16
    0.0035035       286.932       288.474      0.213414       16.1711      0.486843             0       13.2994     0.0167895             0       27.4005     -0.527307             0       1.31063             0             0      0.227791   1.43079e-16    0.00960467        102507        103311        186463   2.62147e-16
     0.004004       286.896       288.481      0.216356       16.1755      0.566166             0       13.3484     0.0142233             0       27.9416     -0.682629             0       1.70821             0             0      0.226997   1.71717e-16     0.0130548        102506        103311        186312   3.14618e-16
    0.0045045       286.867       288.488      0.207249       16.1781      0.634662             0       13.4126    0.00655307             0       28.6232      -0.93245             0       2.25829             0             0      0.225508   2.11918e-16     0.0195295        102506        103310        186137   3.88274e-16
   0.00500501       286.837       288.496      0.198059       16.1809      0.703026             0       13.4766   -0.00112336             0       29.3028      -1.18255             0       2.80949             0             0      0.224012   2.52178e-16     0.0260351        102506        103309        185962   4.62037e-16
   0.00550551       286.847       288.505      0.180625       16.2012      0.758241             0       13.5221   -0.00940861             0       29.7879      -1.45989             0       3.47186             0             0      0.221812   2.98246e-16     0.0356004        102505        103308        185776   5.46442e-16
   0.00600601       286.857       288.515      0.163234       16.2215      0.813276             0       13.5669    -0.0176368             0       30.2652       -1.7361             0       4.13458             0             0      0.219608   3.44279e-16      0.045182        102505        103308        185590   6.30783e-16
   0.00650651       286.909       288.524      0.149396       16.2354      0.853424             0       13.5557    -0.0211684             0       30.0927       -1.9184             0       4.82603             0             0      0.217095   3.87427e-16     0.0561072        102504        103307        185403   7.09839e-16
   0.00700701       286.961       288.533      0.135631       16.2484      0.893425             0       13.5436    -0.0246064             0       29.9083      -2.09855             0       5.51697             0             0      0.214584   4.30476e-16     0.0670259        102504        103306        185215   7.88711e-16
   0.00750751       287.028       288.543      0.127113       16.1911      0.923105             0       13.4601    -0.0214612             0       28.8841      -2.12704             0       6.17206             0             0      0.212177    4.6648e-16     0.0774919        102503        103305        185033   8.54679e-16
   0.00800801       287.095       288.553      0.118644       16.1323      0.953111             0       13.3758    -0.0182635             0       27.8514      -2.15426             0       6.82654             0             0      0.209777   5.02329e-16      0.087924        102502        103304        184851   9.20361e-16
   0.00850851       287.162       288.564      0.113218       15.9848       1.00315             0       13.2387      -0.01184             0       26.2903      -2.10244             0       7.44311             0             0      0.207858   5.28562e-16       0.09627        102502        103303        184674   9.68426e-16
   0.00900901       287.229       288.575      0.107817       15.8362       1.05422             0       13.1011      -0.00544             0       24.7273      -2.05105             0       8.05942             0             0      0.205952    5.5461e-16      0.104556        102501        103302        184498   1.01615e-15
   0.00950951       287.292       288.588      0.103765       15.6239        1.1615             0       12.9381   -0.00032249             0       23.0631      -2.02336             0       8.66145             0             0      0.204793   5.70542e-16      0.109596        102500        103301        184326   1.04534e-15
      0.01001       287.356       288.602     0.0997329        15.411       1.26969             0       12.7748    0.00475893             0       21.3995      -1.99637             0       9.26292             0             0      0.203643   5.86399e-16      0.114597        102500        103300        184154   1.07439e-15
    0.0105105       287.419       288.616     0.0966937       15.1663       1.42247             0       12.5937    0.00807231             0       19.7684      -2.00375             0       9.83731             0             0      0.202923   5.98619e-16      0.117727        102500        103299        183980   1.09678e-15
     0.011011       287.482       288.631     0.0936996       14.9219       1.57509             0       12.4119     0.0114143             0       18.1365      -2.01052             0       10.4101             0             0      0.202205    6.1078e-16      0.120849        102499        103298        183807   1.11906e-15
    0.0115115       287.535       288.646     0.0927134       14.6947       1.72035             0       12.2042     0.0160304             0       16.4674         -1.99             0       10.9125             0             0      0.201564   6.20357e-16      0.123636        102499        103297        183617   1.13661e-15
     0.012012       287.589        288.66     0.0917565       14.4689       1.86423             0       11.9959      0.020686             0       14.7982      -1.96845             0       11.4129             0             0      0.200924    6.2985e-16      0.126418        102499        103296        183427     1.154e-15
    0.0125125       287.634       288.673     0.0919934       14.3048       1.95193             0       11.7636     0.0269485             0       13.1247      -1.90533             0       11.8284             0             0      0.200318   6.35955e-16      0.129051        102499        103295        183208   1.16519e-15
     0.013013       287.679       288.685     0.0922134       14.1429       2.03754             0       11.5312     0.0331581             0       11.4565       -1.8427             0       12.2422             0             0      0.199713   6.42081e-16      0.131683        102498        103294        182989   1.17641e-15
    0.0135135       287.728       288.694     0.0918043       14.0589       2.04463             0       11.2931     0.0373842             0       9.98897      -1.79876             0       12.5881             0             0      0.199113   6.48989e-16      0.134289        102499        103294        182738   1.18907e-15
     0.014014       287.776       288.704     0.0913932       13.9764       2.04986             0       11.0551     0.0415587             0       8.53221      -1.75564             0       12.9309             0             0      0.198514   6.56012e-16      0.136897        102498        103293        182487   1.20194e-15
    0.0145145       287.821        288.71     0.0909138       13.9474       1.99085             0       10.8219     0.0439424             0       7.44919      -1.74156             0        13.166             0             0        0.1979   6.67047e-16      0.139565        102498        103293        182206   1.22216e-15
     0.015015       287.865       288.716     0.0904617       13.9182       1.93103             0       10.5887     0.0464828             0       6.37994      -1.72654             0       13.3945             0             0      0.197283   6.78394e-16      0.142246        102498        103292        181924   1.24295e-15
    0.0155155       287.909       288.721      0.090893       13.8853       1.84513             0       10.3527     0.0540907             0       5.75566      -1.68129             0       13.4098             0             0      0.196581   6.99793e-16      0.145298        102498        103292        181612   1.28215e-15
     0.016016       287.953       288.725     0.0913396       13.8503       1.75931             0       10.1166     0.0619842             0       5.14948      -1.63588             0       13.4171             0             0      0.195873   7.21658e-16      0.148377        102499        103292        181299   1.32221e-15
    0.0165165       287.999       288.728     0.0922501       13.7536       1.67638             0       9.87499     0.0785165             0       5.09085       -1.5856             0       13.1859             0             0      0.194987   7.57627e-16      0.152231        102499        103292        180956   1.38811e-15
     0.017017       288.046       288.731     0.0931683       13.6539       1.59372             0       9.63363     0.0951893             0       5.05493      -1.53938             0       12.9499             0             0      0.194092   7.94034e-16       0.15612        102499        103292        180612   1.45482e-15
    0.0175175       288.094       288.733     0.0943055       13.4715       1.51877             0        9.4001      0.115854             0       5.66415      -1.60849             0       12.5789             0             0      0.192968   8.42889e-16       0.16101        102499        103292        180247   1.54433e-15
     0.018018       288.141       288.734     0.0954851       13.2866       1.44405             0       9.16723      0.136503             0       6.29497      -1.68355             0       12.2065             0             0      0.191836    8.9215e-16       0.16593        102499        103292        179882   1.63459e-15
    0.0185185        288.18       288.735     0.0977983       13.0362       1.37566             0       8.95208      0.156742             0       7.50422      -1.91802             0       11.7977             0             0      0.190517   9.52269e-16      0.171666        102499        103292        179515   1.74474e-15
     0.019019       288.219       288.736      0.100193       12.7842        1.3079             0       8.73754      0.176983             0       8.72653      -2.15573             0       11.3887             0             0      0.189214   1.01195e-15      0.177332        102499        103293        179149   1.85408e-15
    0.0195195       288.232       288.736       0.10465       12.4934       1.25616             0       8.53844      0.197281             0       10.2796      -2.47572             0       10.9733             0             0      0.188314   1.06051e-15      0.181243        102499        103293        178806   1.94305e-15
      0.02002       288.245       288.737      0.109216       12.2021       1.20565             0       8.33958      0.217654             0       11.8346      -2.79366             0       10.5578             0             0      0.187438    1.1081e-15      0.185053        102498        103293        178465   2.03025e-15
    0.0205205       288.231       288.738      0.116391       11.8987       1.18493             0       8.14652      0.239826             0       13.4368      -3.06271             0       10.1433             0             0      0.187124   1.13244e-15      0.186417        102497        103294        178166   2.07484e-15
     0.021021       288.217       288.739      0.123699       11.5958       1.16576             0       7.95378      0.262218             0       15.0278      -3.32587             0       9.72811             0             0      0.186814   1.15644e-15      0.187765        102496        103294        177870   2.11882e-15
    0.0215215       288.191       288.741      0.134041       11.3059       1.18221             0       7.76834      0.289631             0       16.3609      -3.45457             0       9.29757             0             0      0.186585   1.17291e-15      0.188759        102495        103294        177632     2.149e-15
     0.022022       288.165       288.743      0.144506       11.0175       1.20023             0       7.58392      0.316905             0       17.6697      -3.57295             0       8.86729             0             0      0.186359   1.18924e-15      0.189746        102494        103294        177398   2.17891e-15
    0.0225225       288.134       288.747      0.157655         10.76       1.25237             0       7.42186       0.34114             0       18.4518       -3.4671             0       8.44262             0             0      0.186171   1.20248e-15       0.19056        102493        103295        177235   2.20317e-15
     0.023023       288.103       288.752      0.170771       10.5045       1.30595             0       7.26068      0.365472             0       19.2167      -3.35519             0        8.0206             0             0      0.185991   1.21552e-15      0.191345        102492        103295        177076   2.22705e-15
    0.0235235       288.073       288.756      0.183187       10.2915       1.38916             0       7.11769      0.391809             0       19.6247      -3.11757             0       7.65343             0             0      0.185948   1.22434e-15      0.191531        102490        103295        176995   2.24322e-15
     0.024024       288.044       288.759      0.195429       10.0809       1.47361             0       6.97525      0.418328             0       20.0252      -2.87649             0       7.28897             0             0      0.185914     1.233e-15       0.19168        102489        103295        176920   2.25908e-15
    0.0245245        288.02       288.762      0.204196       9.91675       1.58257             0       6.84371      0.448425             0       20.2755      -2.56672             0       6.97849             0             0      0.186047   1.23829e-15      0.191098        102488        103295        176928   2.26878e-15
     0.025025       287.997       288.765      0.212817       9.75497       1.69245             0       6.71247      0.478488             0       20.5262      -2.25353             0       6.67022             0             0      0.186187   1.24347e-15      0.190491        102487        103295        176941   2.27827e-15
    0.0255255       287.977       288.772      0.218635       9.63777        1.8198             0       6.58692      0.507918             0       20.7856      -1.87531             0       6.40405             0             0      0.186438   1.24651e-15      0.189398        102486        103294        177035   2.28383e-15
     0.026026       287.958        288.78      0.224269       9.52286       1.94781             0       6.46124      0.537829             0        21.065      -1.50541             0       6.14306             0             0      0.186692   1.24943e-15      0.188294        102485        103294        177135   2.28919e-15
    0.0265265       287.944       288.788      0.226535       9.44953        2.0878             0       6.33323      0.576534             0       21.7115      -1.28744             0       5.97679             0             0      0.186992   1.25027e-15      0.186993        102484        103294        177318   2.29072e-15
     0.027027        287.93       288.795      0.228514       9.37777       2.22855             0       6.20602        0.6154             0       22.3726      -1.08124             0       5.81887             0             0      0.187292   1.25103e-15      0.185687        102483        103294        177506   2.29212e-15
    0.0275275        287.92       288.798      0.225451       9.33331       2.38266             0       6.09282      0.657096             0       23.2923      -1.08139             0       5.80738             0             0      0.187611   1.25055e-15      0.184301        102482        103293        177791   2.29124e-15
     0.028028       287.911       288.801      0.222091       9.28891       2.53782             0       5.98222      0.698227             0       24.1902      -1.08574             0       5.80272             0             0      0.187931    1.2501e-15      0.182909        102481        103293        178082   2.29041e-15
    0.0285285       287.904       288.798      0.213718       9.24563       2.71066             0       5.91563      0.729835             0       24.7226       -1.1609             0       5.91341             0             0      0.188277   1.25017e-15      0.181407        102481        103292        178481   2.29054e-15
     0.029029       287.897       288.794      0.205227       9.20144       2.88421             0       5.85282      0.760321             0       25.2007      -1.23161             0       6.02762             0             0      0.188623   1.25029e-15      0.179901        102480        103292        178887   2.29077e-15
    0.0295295       287.891       288.786      0.194807       9.14262       3.06913             0       5.85137      0.772588             0       24.7961      -1.23011             0       6.19894             0             0      0.188982   1.25124e-15      0.178338        102479        103291        179400    2.2925e-15
      0.03003       287.886       288.779      0.184411       9.08402       3.25341             0       5.85356      0.783667             0       24.3355       -1.2214             0       6.37062             0             0      0.189342   1.25222e-15      0.176776        102479        103290        179917   2.29431e-15
    0.0305305       287.883       288.772      0.174407       9.02873       3.42766             0       5.91291      0.776145             0       22.9955      -1.09988             0       6.54791             0             0      0.189701   1.25389e-15      0.175213        102478        103289        180514   2.29736e-15
     0.031031       287.881       288.765      0.164403       8.97664       3.59956             0       5.97488      0.767763             0       21.6264     -0.974308             0       6.72441             0             0       0.19006    1.2555e-15      0.173655        102478        103288        181113   2.30031e-15
    0.0315315       287.882       288.761      0.154401       8.97305       3.73569             0       6.07665      0.746361             0       19.8147      -0.78727             0         6.889             0             0      0.190401   1.25618e-15       0.17217        102477        103288        181749   2.30156e-15
     0.032032       287.882       288.757      0.144411       8.97543       3.86825             0        6.1799      0.724579             0       18.0054     -0.601302             0       7.05334             0             0      0.190744    1.2567e-15      0.170679        102477        103287        182386   2.30251e-15
    0.0325325       287.883       288.754      0.134592       9.06494       3.94849             0       6.30485      0.697241             0       16.2307     -0.431002             0       7.21393             0             0      0.191111    1.2548e-15      0.169084        102476        103286        183021   2.29902e-15
     0.033033       287.884       288.751      0.124851       9.16058       4.02538             0       6.43047      0.669922             0       14.4759     -0.264799             0       7.37519             0             0      0.191469   1.25294e-15      0.167524        102475        103286        183655   2.29561e-15
    0.0335335       287.885       288.749      0.116212       9.34311       4.05494             0       6.56571      0.642864             0       13.0037     -0.156589             0       7.54602             0             0      0.191714    1.2517e-15      0.166462        102475        103285        184267   2.29334e-15
     0.034034       287.887       288.747      0.107681       9.52829       4.08295             0       6.70129      0.615896             0       11.5533    -0.0529793             0        7.7175             0             0      0.191933   1.25072e-15      0.165507        102475        103285        184877   2.29156e-15
    0.0345345        287.89       288.747      0.100627       9.74993       4.08963             0       6.84155      0.590171             0       10.4021    -0.0124174             0       7.89787             0             0      0.191813   1.25338e-15      0.166028        102475        103285        185462   2.29643e-15
     0.035035       287.893       288.746     0.0936657       9.96704       4.09836             0       6.98264      0.564621             0       9.26418     0.0230856             0        8.0774             0             0      0.191655   1.25658e-15      0.166714        102476        103284        186044   2.30228e-15
    0.0355355       287.904       288.745     0.0879374        10.124       4.13439             0       7.13487      0.541393             0       8.30283   -0.00862334             0       8.24574             0             0      0.190994   1.26689e-15      0.169589        102477        103285        186597   2.32118e-15
     0.036036       287.915       288.745     0.0822921       10.2683       4.17552             0       7.28827      0.518428             0       7.35481     -0.045077             0       8.40874             0             0       0.19028   1.27811e-15      0.172697        102478        103285        187146   2.34173e-15
    0.0365365       287.935       288.745     0.0777149       10.2499       4.28219             0       7.45667      0.498857             0       6.57853     -0.142684             0       8.50296             0             0      0.188871   1.30096e-15      0.178822        102480        103285        187647   2.38361e-15
     0.037037       287.955       288.744     0.0732041       10.2145        4.3929             0       7.62527      0.479333             0       5.82825     -0.242938             0        8.5872             0             0      0.187451     1.324e-15      0.184995        102482        103285        188143   2.42581e-15
    0.0375375       287.968       288.745     0.0695249       9.96526       4.55397             0       7.79641      0.460402             0        5.4032     -0.376311             0       8.54658             0             0      0.185893   1.34921e-15      0.191769        102484        103285        188571   2.47201e-15
     0.038038       287.981       288.745     0.0658899       9.69817       4.71709             0       7.96689      0.441519             0       5.01044     -0.509528             0       8.49475             0             0      0.184381   1.37353e-15      0.198342        102485        103285        188993   2.51656e-15
    0.0385385       287.982       288.746     0.0627911       9.21432       4.90515             0       8.12939      0.423208             0       5.01035     -0.640865             0       8.30685             0             0      0.183431   1.38694e-15      0.202473        102487        103286        189342   2.54113e-15
     0.039039       287.982       288.747     0.0597184       8.71865       5.09128             0       8.29089      0.404982             0        5.0428     -0.768663             0       8.10746             0             0      0.182523   1.39931e-15       0.20642        102489        103287        189686   2.56379e-15
    0.0395395       287.976       288.747     0.0569534       8.08337       5.25447             0       8.44041      0.387743             0       5.45999     -0.854646             0       7.77228             0             0      0.182118   1.39946e-15      0.208185        102490        103288        189959   2.56407e-15
      0.04004        287.97       288.748     0.0542184       7.45222       5.40625             0       8.58855      0.370626             0       5.90724     -0.933621             0       7.42782             0             0      0.181739    1.3985e-15      0.209829        102492        103289        190226   2.56231e-15
    0.0405405       287.961       288.747     0.0518275       6.86858       5.42672             0       8.72067      0.354896             0       6.70017     -0.932013             0       6.97682             0             0      0.181679   1.38467e-15      0.210093        102493        103290        190430   2.53697e-15
     0.041041       287.953       288.746      0.049465       6.30203       5.42963             0       8.85049      0.339344             0       7.50986     -0.922838             0       6.52025             0             0      0.181631   1.37019e-15        0.2103        102495        103291        190630   2.51045e-15
    0.0415415       287.959       288.743     0.0474195       5.92677       5.23585             0       8.95436      0.325792             0       8.50729     -0.828941             0       6.00139             0             0      0.181729   1.34847e-15      0.209873        102496        103293        190788   2.47065e-15
     0.042042       287.967       288.739     0.0454157        5.5646       5.03082             0       9.05454      0.312221             0       9.49765     -0.730802             0       5.48128             0             0      0.181831   1.32697e-15       0.20943        102498        103294        190945   2.43126e-15
    0.0425425       288.001       288.734     0.0438661       5.34517       4.70301             0        9.1145      0.298451             0       10.4111     -0.586399             0       4.94762             0             0      0.181971    1.3079e-15      0.208821        102499        103295        191088   2.39632e-15
     0.043043       288.035       288.728     0.0423938       5.13113       4.37189             0       9.17075      0.284555             0        11.298     -0.442215             0       4.41734             0             0      0.182108   1.29088e-15      0.208228        102500        103297        191231   2.36514e-15
    0.0435435       288.076       288.723     0.0417432       4.97437       4.00549             0       9.18758      0.269326             0        11.904      -0.30036             0       3.92297             0             0      0.182202   1.29574e-15      0.207817        102501        103298        191384   2.37404e-15
     0.044044       288.115       288.717     0.0411625       4.82183       3.63724             0       9.20175      0.253777             0        12.479     -0.164242             0       3.43292             0             0       0.18229   1.30446e-15      0.207434        102503        103299        191538   2.39002e-15
    0.0445445       288.141       288.711     0.0413065        4.7129       3.24991             0       9.18838      0.234902             0       12.7341    -0.0875705             0       2.98769             0             0      0.182309   1.35329e-15      0.207351        102503        103300        191705   2.47948e-15
     0.045045       288.165       288.706     0.0414905       4.59402       2.86388             0       9.17236      0.215452             0       12.9686    -0.0184703             0       2.54544             0             0      0.182337   1.40247e-15      0.207229        102504        103302        191872   2.56958e-15
    0.0455455       288.176       288.702      0.042079       4.37438       2.49107             0       9.12953      0.190199             0       12.9949    -0.0259205             0       2.13349             0             0      0.182456   1.45515e-15      0.206711        102505        103302        192037   2.66611e-15