#           y             T         TMean   TPrime2Mean           U_x           U_y           U_z       UMean_x       UMean_y       UMean_z UPrime2Mea... UPrime2Mea... UPrime2Mea... UPrime2Mea... UPrime2Mea... UPrime2Mea...            O2           H2O          C3H8             p         pMean   pPrime2Mean           CO2
  1.11022e-19       287.801       288.267      0.166497       20.8308   2.37782e-17             0         14.92   7.79694e-18             0       22.0676  -2.34547e-18             0   2.39671e-17             0             0      0.229799   1.68942e-17   0.000874899        102570        103326        164563   3.09533e-17
  0.000500501         287.8       288.266      0.173654       20.8135      0.107195             0       14.9312     0.0351494             0       22.1129    -0.0105736             0      0.108046             0             0      0.229738   1.93813e-17    0.00114103        102570        103326        164540   3.55102e-17
     0.001001       287.798       288.264       0.18083       20.7961        0.2144             0       14.9423     0.0702982             0       22.1584    -0.0211725             0      0.216346             0             0      0.229676   2.18787e-17    0.00140875        102570        103326        164518   4.00859e-17
    0.0015015       287.795       288.263      0.197749       20.7371      0.326777             0       14.9671      0.105095             0       22.2973    -0.0443778             0       0.45103             0             0      0.229432   2.95099e-17    0.00246794        102571        103325        164444   5.40677e-17
     0.002002       287.792       288.261      0.214665        20.678      0.439213             0       14.9918       0.13989             0       22.4359    -0.0676104             0      0.686171             0             0      0.229188   3.71611e-17    0.00353219        102571        103325        164369   6.80859e-17
    0.0025025       287.788       288.265      0.230848       20.6058      0.566327             0       14.9992      0.173988             0       22.5049    -0.0976651             0       1.03517             0             0      0.228653   4.97703e-17    0.00585594        102571        103325        164243   9.11885e-17
     0.003003       287.783       288.268      0.246994       20.5339      0.693541             0       15.0064      0.208084             0        22.572     -0.127655             0       1.38465             0             0      0.228116   6.24096e-17    0.00819281        102571        103324        164116   1.14346e-16
    0.0035035       287.778       288.281       0.25711       20.5166      0.837256             0       14.9738       0.24186             0       22.3266     -0.146948             0       1.81401             0             0      0.227079    8.0017e-17     0.0127007        102572        103324        163942   1.46606e-16
     0.004004       287.772       288.295        0.2672       20.4998      0.981091             0       14.9409      0.275652             0       22.0793     -0.165889             0       2.24381             0             0      0.226037   9.76522e-17     0.0172315        102572        103323        163768   1.78917e-16
    0.0045045       287.751       288.314      0.274073       20.5466       1.13973             0       14.8767      0.311246             0       21.6066     -0.141133             0       2.72883             0             0      0.224343    1.1875e-16     0.0245947        102573        103323        163548   2.17572e-16
   0.00500501       287.729       288.333      0.280929       20.5938       1.29797             0       14.8124       0.34684             0       21.1344     -0.116181             0       3.21429             0             0      0.222643   1.39869e-16     0.0319852        102574        103322        163327   2.56266e-16
   0.00550551       287.686        288.35      0.285988       20.6718       1.41669             0       14.7323      0.382385             0       20.7069    -0.0719127             0       3.74447             0             0      0.220325   1.63063e-16     0.0420656        102574        103321        163065   2.98761e-16
   0.00600601       287.644       288.367      0.291012       20.7498       1.53439             0       14.6521       0.41788             0       20.2802    -0.0287843             0       4.27528             0             0      0.217998   1.86262e-16     0.0521829        102575        103321        162802   3.41267e-16
   0.00650651       287.617       288.382      0.293195       20.8342       1.56794             0       14.5655      0.449274             0       19.9124    -0.0795272             0       4.85847             0             0      0.214973   2.09933e-16     0.0653353        102576        103320        162504   3.84636e-16
   0.00700701       287.592       288.398      0.295339       20.9174        1.6013             0       14.4789      0.480607             0       19.5453     -0.131955             0       5.44289             0             0      0.211932   2.33643e-16     0.0785545        102577        103320        162205   4.28077e-16
   0.00750751       287.628       288.408      0.294727        20.915       1.62178             0       14.3995        0.5077             0       19.2181     -0.303052             0       6.11431             0             0      0.207808   2.60144e-16     0.0964872        102579        103319        161877   4.76632e-16
   0.00800801       287.665       288.419      0.294076       20.9086       1.64401             0       14.3205      0.534834             0       18.8927     -0.473818             0       6.78801             0             0      0.203678   2.86726e-16      0.114444        102581        103318        161549   5.25336e-16
   0.00850851       287.743       288.421      0.291066       20.6503       1.77346             0         14.26      0.564513             0       18.6802     -0.624238             0       7.60198             0             0      0.199209   3.18322e-16      0.133871        102582        103317        161214   5.83225e-16
   0.00900901        287.82       288.424      0.288001       20.3851       1.90686             0       14.1996      0.594356             0       18.4676     -0.770845             0       8.41801             0             0      0.194765   3.49906e-16      0.153196        102584        103317        160880   6.41094e-16
   0.00950951       287.869       288.424      0.281935       19.7407       2.25624             0       14.1381      0.633134             0       18.2519     -0.709507             0       9.34621             0             0      0.191603   3.80846e-16      0.166942        102585        103316        160566   6.97781e-16
      0.01001       287.918       288.424      0.275836       19.0898       2.61011             0       14.0759      0.672132             0       18.0324     -0.642277             0       10.2747             0             0      0.188474   4.11709e-16       0.18055        102587        103315        160253   7.54327e-16
    0.0105105        287.93       288.428      0.268099       18.1151       3.18341             0       13.9754      0.721923             0       17.6285     -0.286359             0       11.2189             0             0      0.186899   4.38806e-16      0.187394        102587        103314        159976   8.03974e-16
     0.011011       287.941       288.431      0.260384       17.1386       3.75806             0       13.8735        0.7718             0         17.22     0.0738152             0       12.1624             0             0      0.185342   4.65878e-16      0.194167        102588        103313        159700   8.53575e-16
    0.0115115       287.946       288.439      0.253602       16.0861       4.39261             0       13.7084       0.82553             0       16.6055      0.623167             0       13.0805             0             0      0.184504   4.91846e-16      0.197808        102587        103311        159463   9.01153e-16
     0.012012       287.952       288.448       0.24683        15.038       5.02406             0       13.5414      0.879181             0        15.987       1.17415             0       13.9967             0             0      0.183678   5.17846e-16      0.201398        102587        103310        159227   9.48789e-16
    0.0125125       287.958       288.458      0.240424       14.1745       5.52979             0       13.2952      0.929652             0        15.206       1.79135             0       14.8385             0             0       0.18332   5.45134e-16      0.202957        102586        103309        159010   9.98786e-16
     0.013013       287.964       288.469      0.234044       13.3193       6.02944             0       13.0468      0.979911             0       14.4223       2.40764             0       15.6759             0             0      0.182981   5.72509e-16      0.204433        102585        103307        158792   1.04894e-15
    0.0135135       287.966        288.48      0.228625       12.7777       6.30145             0       12.7164       1.02221             0       13.5309       2.98997             0       16.3425             0             0      0.183352   6.03122e-16      0.202819        102583        103306        158559   1.10503e-15
     0.014014       287.968       288.492      0.223271       12.2443       6.56766             0       12.3845         1.064             0         12.64       3.56634             0       17.0038             0             0      0.183737   6.33783e-16      0.201145        102580        103305        158326   1.16121e-15
    0.0145145       287.964       288.501      0.220186       11.9977       6.63224             0       11.9971       1.08831             0       11.7649       3.93589             0       17.4775             0             0      0.184608   6.66111e-16      0.197355        102578        103304        158067   1.22044e-15
     0.015015        287.96       288.509      0.217149       11.7562       6.69379             0       11.6092       1.11186             0       10.8961       4.29619             0       17.9467             0             0      0.185485   6.98317e-16      0.193544        102575        103303        157807   1.27945e-15
    0.0155155       287.953       288.515      0.215678        11.677       6.65738             0       11.2059       1.11087             0       10.2333       4.35736             0       18.2738             0             0      0.186509   7.26586e-16       0.18909        102572        103302        157521   1.33124e-15
     0.016016       287.947        288.52      0.214205       11.5996       6.62009             0       10.8032        1.1092             0       9.58342       4.41197             0       18.5974             0             0      0.187533    7.5466e-16      0.184637        102570        103301        157233   1.38268e-15
    0.0165165       287.942       288.523      0.212682       11.5794       6.55657             0       10.4211        1.0871             0       9.32345       4.26844             0       18.8182             0             0      0.188551   7.76854e-16      0.180214        102567        103301        156909   1.42334e-15
     0.017017       287.937       288.525      0.211086       11.5603       6.49277             0       10.0406       1.06471             0       9.07904        4.1236             0        19.037             0             0      0.189569   7.98892e-16      0.175789        102565        103300        156583   1.46372e-15
    0.0175175       287.933       288.522      0.207405        11.571        6.4208             0        9.7061       1.03431             0       9.27647       3.94165             0       19.1969             0             0      0.190598   8.16492e-16      0.171311        102562        103300        156227   1.49596e-15
     0.018018        287.93        288.52      0.203697       11.5834       6.34826             0       9.37347       1.00395             0       9.48695       3.76151             0       19.3574             0             0      0.191628   8.33943e-16      0.166837        102560        103299        155871   1.52794e-15
    0.0185185       287.926       288.512      0.199264       11.6405          6.26             0       9.09157      0.974849             0       10.0466       3.62959             0       19.5306             0             0      0.192637   8.47394e-16      0.162448        102558        103299        155508   1.55258e-15
     0.019019       287.922       288.505      0.194935          11.7       6.17061             0       8.81133      0.945827             0        10.614       3.49952             0       19.7077             0             0      0.193636     8.606e-16      0.158103        102556        103299        155146   1.57678e-15
    0.0195195       287.924       288.499      0.193238       11.8206       6.05274             0       8.57278      0.918871             0       11.3793       3.41659             0       19.9851             0             0      0.194383   8.67624e-16      0.154857        102555        103299        154803   1.58965e-15
      0.02002       287.925       288.494      0.191559       11.9433        5.9335             0       8.33568      0.891876             0       12.1491       3.33375             0       20.2683             0             0      0.195116   8.74369e-16      0.151671        102554        103299        154461   1.60201e-15
    0.0205205       287.932       288.496      0.190284       12.1158       5.78172             0       8.13331      0.863947             0       13.0291       3.25325             0       20.6912             0             0      0.195515   8.74432e-16      0.149933        102553        103298        154149   1.60212e-15
     0.021021       287.939       288.499      0.188935       12.2888       5.62858             0        7.9322      0.835945             0       13.9117       3.17075             0       21.1194             0             0      0.195905   8.74288e-16      0.148238        102553        103298        153838   1.60186e-15
    0.0215215       287.947        288.51      0.185902       12.4741       5.44457             0       7.76003       0.80627             0       14.8556       3.04246             0       21.6665             0             0      0.196072   8.69457e-16      0.147514        102554        103298        153563   1.59301e-15
     0.022022       287.956       288.521      0.182917       12.6586       5.25889             0       7.58865      0.776491             0       15.7985       2.91127             0       22.2167             0             0      0.196234   8.64469e-16      0.146812        102555        103298        153289   1.58387e-15
    0.0225225       287.965       288.535      0.180965       12.8235       5.03678             0       7.43463      0.744468             0       16.7222       2.71683             0       22.8364             0             0      0.196285   8.56073e-16      0.146589        102556        103297        153057   1.56848e-15
     0.023023       287.974        288.55      0.179095       12.9876       4.81184             0       7.28108       0.71217             0       17.6397       2.51964             0       23.4573             0             0      0.196339   8.47703e-16      0.146351        102557        103297        152828   1.55315e-15
    0.0235235       287.979       288.562      0.178898       13.1333       4.52794             0       7.13722      0.674183             0       18.4289       2.26536             0       24.1045             0             0      0.196468   8.39856e-16       0.14579        102560        103297        152652   1.53877e-15
     0.024024       287.984       288.574      0.178797       13.2783       4.24096             0       6.99414       0.63572             0       19.2055       2.00938             0       24.7525             0             0      0.196603   8.32193e-16      0.145203        102562        103296        152480   1.52473e-15
    0.0245245       287.984       288.585      0.180604       13.4085       3.89284             0        6.8666       0.58781             0        19.732       1.71968             0       25.4125             0             0      0.196862   8.28169e-16      0.144079        102565        103296        152373   1.51736e-15
     0.025025       287.985       288.596      0.182425       13.5355       3.54497             0       6.74035      0.539442             0       20.2427       1.42913             0       26.0735             0             0      0.197121   8.24402e-16      0.142952        102568        103296        152269   1.51046e-15
    0.0255255       287.984       288.607      0.184518        13.603       3.20192             0       6.63873      0.482382             0       20.4536       1.12237             0       26.7543             0             0      0.197397   8.25523e-16      0.141753        102571        103295        152239   1.51251e-15
     0.026026       287.983       288.619      0.186444       13.6651        2.8624             0       6.53855      0.425062             0       20.6516      0.814275             0       27.4365             0             0      0.197674   8.26963e-16       0.14055        102574        103295        152213   1.51515e-15
    0.0265265       287.984       288.629      0.185321       13.6301        2.5874             0       6.46448      0.363024             0        20.614      0.481962             0       28.1454             0             0      0.197968   8.34241e-16      0.139269        102578        103295        152264   1.52849e-15
     0.027027       287.986       288.639      0.184016       13.5899       2.31663             0       6.39167      0.300925             0       20.5691       0.14665             0       28.8562             0             0       0.19826   8.41715e-16      0.137998        102581        103294        152319   1.54218e-15
    0.0275275       287.993       288.648      0.179522        13.457       2.12001             0       6.34083      0.237737             0       20.3952     -0.241208             0       29.6018             0             0       0.19851   8.52612e-16      0.136914        102585        103294        152449   1.56214e-15
     0.028028       288.002       288.656      0.174955       13.3156       1.93066             0       6.29109      0.174597             0       20.2167     -0.632834             0       30.3485             0             0      0.198738   8.63437e-16      0.135923        102588        103293        152583   1.58198e-15
    0.0285285       288.026       288.659      0.169134       13.0328       1.86366             0       6.25977      0.112242             0       19.9615      -1.08796             0       31.1129             0             0      0.198605   8.73052e-16      0.136499        102591        103293        152790    1.5996e-15
     0.029029       288.052       288.663      0.163395       12.7363       1.80935             0       6.22952     0.0499228             0       19.6995      -1.54514             0       31.8744             0             0      0.198435   8.82406e-16      0.137239        102595        103292        153002   1.61674e-15
    0.0295295       288.106       288.663      0.158994       12.2166       1.96117             0       6.21648    -0.0118251             0       19.3264      -2.03564             0       32.5899             0             0      0.197653   8.87512e-16      0.140639        102598        103292        153284   1.62609e-15
      0.03003       288.163       288.663      0.154722       11.6846       2.12439             0       6.20414    -0.0733762             0       18.9435      -2.52559             0       33.2966             0             0      0.196833   8.92273e-16      0.144204        102600        103292        153570   1.63481e-15
    0.0305305        288.25       288.661      0.152482       10.9592       2.46636             0       6.20259     -0.131845             0       18.4072      -3.00686             0       33.8646             0             0      0.195413    8.9161e-16      0.150379        102602        103292        153920    1.6336e-15
     0.031031       288.339       288.659      0.150298       10.2311       2.81147             0       6.20103     -0.189689             0       17.8598      -3.48518             0       34.4181             0             0      0.193978   8.90409e-16      0.156617        102604        103292        154274    1.6314e-15
    0.0315315       288.442       288.656      0.148979       9.46274       3.20412             0       6.19941     -0.238097             0       17.1451      -3.91895             0       34.7518             0             0      0.192324   8.81073e-16      0.163811        102605        103292        154685   1.61429e-15
     0.032032       288.543       288.652      0.147645       8.70421       3.58866             0       6.19774     -0.285548             0       16.4244      -4.34969             0       35.0686             0             0       0.19071   8.71429e-16      0.170824        102607        103292        155100   1.59662e-15
    0.0325325       288.615       288.648      0.146102       8.09004       3.85478             0       6.19542     -0.319006             0       15.6162       -4.7361             0       35.1384             0             0      0.189706   8.57261e-16      0.175191        102607        103293        155565   1.57066e-15
     0.033033       288.682       288.644      0.144513       7.48942       4.10802             0       6.19386     -0.351499             0       14.8154      -5.12284             0        35.193             0             0      0.188778   8.43398e-16      0.179225        102608        103293        156032   1.54526e-15
    0.0335335       288.686       288.641      0.142276       7.08059       4.17906             0       6.20294     -0.370326             0       14.1193      -5.51413             0       35.0336             0             0      0.188934   8.33847e-16      0.178546        102609        103294        156535   1.52776e-15
     0.034034       288.684       288.637      0.140048       6.67649       4.24514             0       6.21364     -0.388407             0       13.4436      -5.90929             0       34.8613             0             0      0.189187   8.24614e-16       0.17745        102609        103294        157038   1.51085e-15
    0.0345345       288.592       288.634      0.137951       6.33711        4.2431             0       6.24664      -0.39628             0       13.0475      -6.35728             0       34.5123             0             0      0.190753   8.19754e-16      0.170639        102609        103295        157562   1.50194e-15
     0.035035       288.497       288.631      0.135892       5.99657       4.23878             0       6.28172      -0.40362             0       12.6795      -6.80946             0       34.1503             0             0       0.19236   8.15186e-16      0.163651        102610        103296        158085   1.49357e-15
    0.0355355       288.353       288.628      0.134346       5.64069       4.20429             0       6.34458      -0.40388             0       12.6848      -7.31722             0       33.6157             0             0      0.194506   8.14514e-16      0.154323        102610        103297        158609   1.49234e-15
     0.036036        288.21       288.625       0.13283       5.27714       4.16917             0       6.40927     -0.403544             0       12.7249      -7.82691             0       33.0658             0             0      0.196598   8.14863e-16      0.145225        102610        103298        159131   1.49298e-15
    0.0365365       288.084       288.623      0.131709       4.81463       4.12603             0       6.49761     -0.395524             0       13.2137      -8.36139             0       32.3193             0             0      0.198011    8.2839e-16      0.139084        102610        103299        159629   1.51776e-15
     0.037037       287.963       288.621      0.130676       4.33571       4.09088             0       6.58715     -0.386868             0       13.7442      -8.89601             0       31.5564             0             0      0.199343    8.4293e-16      0.133291        102610        103300        160122    1.5444e-15
    0.0375375       287.892       288.618      0.130746       3.65141       4.15581             0       6.69182     -0.370252             0       14.7957      -9.43255             0       30.5897             0             0      0.199674   8.70135e-16      0.131853        102610        103301        160569   1.59425e-15
     0.038038       287.828       288.615      0.131051        2.9661       4.22238             0       6.79728     -0.353333             0       15.8873      -9.96841             0       29.6102             0             0      0.199886   8.99232e-16      0.130931        102610        103302        161011   1.64756e-15
    0.0385385       287.836        288.61      0.134216       2.26843       4.30882             0       6.91222     -0.332742             0       17.4673      -10.4962             0       28.4768             0             0      0.198654   9.51341e-16      0.136288        102610        103304        161396   1.74303e-15
     0.039039       287.848       288.604      0.137605       1.59844       4.37866             0       7.02743     -0.312111             0       19.0753      -11.0203             0       27.3356             0             0      0.197328   1.00586e-15      0.142052        102609        103305        161777   1.84293e-15
    0.0395395       287.899       288.595       0.14366       1.25556       4.25221             0       7.14593     -0.291016             0       21.0147      -11.5009             0       26.1016             0             0      0.194893   1.08892e-15      0.152638        102609        103307        162110   1.99511e-15
      0.04004        287.95       288.585      0.149738      0.943532       4.10618             0       7.26372     -0.269911             0       22.9631      -11.9729             0       24.8614             0             0      0.192443   1.17329e-15      0.163293        102609        103308        162441   2.14969e-15
    0.0405405       287.999       288.574        0.1561      0.986285       3.73507             0       7.37342     -0.248702             0       25.0165      -12.3441             0       23.5493             0             0      0.189811   1.27274e-15      0.174733        102608        103310        162745   2.33189e-15
     0.041041       288.046       288.563      0.162357       1.03671       3.35873             0       7.48106     -0.227569             0       27.0554       -12.701             0       22.2299             0             0      0.187192   1.37247e-15      0.186123        102608        103312        163049   2.51463e-15
    0.0415415       288.077       288.552      0.167438       1.17296       2.92384             0       7.56569     -0.207286             0       28.9311      -12.8988             0       20.8284             0             0      0.184702   1.47551e-15      0.196947        102607        103313        163345   2.70341e-15
     0.042042       288.106       288.541      0.172275       1.29646       2.49649             0       7.64745     -0.187159             0         30.77      -13.0758             0       19.4191             0             0      0.182293   1.57476e-15      0.207421        102607        103315        163642   2.88526e-15
    0.0425425       288.114       288.533      0.174451       1.28099       2.15143             0        7.6978     -0.168745             0       32.2061       -13.027             0       17.9265             0             0      0.180764   1.63275e-15      0.214068        102606        103317        163942   2.99151e-15
     0.043043        288.12       288.525      0.176436       1.25115       1.81488             0       7.74477     -0.150679             0       33.5857      -12.9502             0       16.4272             0             0      0.179351   1.68504e-15      0.220212        102605        103318        164244   3.08731e-15
    0.0435435       288.104       288.521       0.17638       1.06863       1.56874             0       7.75592     -0.136321             0       34.3644      -12.5756             0       14.8571             0             0      0.179166   1.67675e-15      0.221015        102604        103320        164553   3.07211e-15
     0.044044       288.088       288.516      0.176391      0.880636       1.32651             0       7.76231     -0.122891             0       35.0865      -12.1676             0       13.2856             0             0      0.179034   1.66601e-15      0.221591        102603        103322        164862   3.05243e-15
    0.0445445       288.064       288.514       0.17711      0.635944       1.12471             0       7.71951     -0.119073             0        35.223      -11.4127             0       11.7002             0             0       0.17944   1.62992e-15      0.219823        102603        103324        165178   2.98632e-15
     0.045045        288.04       288.511      0.177716      0.392325      0.924361             0       7.67046     -0.115774             0       35.3319      -10.6248             0       10.1213             0             0      0.179851   1.59473e-15       0.21804        102602        103326        165494   2.92184e-15
    0.0455455       288.026       288.505      0.177185      0.159568      0.738683             0       7.55821     -0.117718             0       35.1621      -9.50254             0        8.6073             0             0      0.180297   1.56861e-15      0.216102        102601        103327        165808   2.87399e-15