#           y             T         TMean   TPrime2Mean           U_x           U_y           U_z       UMean_x       UMean_y       UMean_z UPrime2Mea... UPrime2Mea... UPrime2Mea... UPrime2Mea... UPrime2Mea... UPrime2Mea...            O2           H2O          C3H8             p         pMean   pPrime2Mean           CO2
  1.11022e-19       288.138       288.614     0.0929822       32.4112  -2.44619e-17             0        11.604   5.83784e-18             0       26.5279   4.53566e-17             0   4.79756e-18             0             0      0.182473   1.94763e-15      0.206638        102491        103260        247544   3.56843e-15
  0.000500501       288.137       288.622     0.0897728       32.2991     -0.110277             0       11.6029     0.0263176             0       26.4982      0.204472             0     0.0216279             0             0         0.182   1.98828e-15      0.208697        102491        103260        247538    3.6429e-15
     0.001001       288.136        288.63       0.08656       32.1864     -0.220565             0       11.6018     0.0526349             0       26.4681       0.40893             0     0.0433183             0             0      0.181525     2.029e-15       0.21076        102490        103260        247532   3.71752e-15
    0.0015015       288.148       288.643     0.0816744       31.7114     -0.336315             0       11.5963       0.07879             0       26.2444      0.606298             0     0.0961498             0             0      0.180509   2.10951e-15       0.21518        102490        103260        247515   3.86502e-15
     0.002002       288.159       288.657     0.0767951       31.2354     -0.452104             0       11.5908      0.104939             0       26.0198      0.803538             0      0.149125             0             0      0.179494   2.18988e-15      0.219594        102489        103260        247497   4.01227e-15
    0.0025025       288.178       288.664     0.0734874       30.4755     -0.577654             0       11.5811       0.12965             0       25.5646      0.969188             0      0.237892             0             0      0.178809   2.23626e-15       0.22257        102488        103259        247465   4.09724e-15
     0.003003       288.198       288.672     0.0701807       29.7154     -0.703288             0       11.5714      0.154349             0        25.109       1.13459             0      0.326856             0             0      0.178128   2.28235e-15      0.225531        102487        103259        247432   4.18169e-15
    0.0035035       288.207       288.676     0.0670468       28.9305     -0.842828             0       11.5615       0.17728             0       24.6013       1.25934             0      0.448317             0             0      0.178036   2.28185e-15      0.225931        102486        103259        247377   4.18078e-15
     0.004004       288.216        288.68     0.0639175       28.1453      -0.98253             0       11.5516      0.200199             0       24.0937       1.38382             0      0.569996             0             0      0.177946   2.28122e-15      0.226322        102485        103259        247322   4.17963e-15
    0.0045045       288.217       288.683     0.0613659       27.3265      -1.14221             0       11.5417      0.221748             0       23.5943        1.4754             0      0.718618             0             0      0.178092   2.26472e-15      0.225686        102483        103259        247240   4.14939e-15
   0.00500501       288.218       288.686     0.0588189       26.5074      -1.30204             0       11.5318      0.243284             0        23.095       1.56668             0      0.867452             0             0       0.17824   2.24821e-15      0.225044        102482        103258        247158   4.11914e-15
   0.00550551       288.214       288.687     0.0567191       25.6503      -1.47655             0       11.5208      0.263496             0       22.6019       1.62822             0       1.03734             0             0      0.178529   2.23106e-15      0.223787        102481        103258        247046   4.08772e-15
   0.00600601       288.209       288.689     0.0546236       24.7936       -1.6511             0       11.5098      0.283693             0       22.1095       1.68943             0       1.20742             0             0      0.178824   2.21382e-15      0.222506        102479        103258        246934   4.05614e-15
   0.00650651       288.192       288.689      0.052879       23.9726       -1.8287             0       11.4991      0.302616             0       21.6756       1.72352             0       1.39296             0             0       0.17957   2.18933e-15      0.219261        102478        103258        246791   4.01127e-15
   0.00700701       288.175       288.689     0.0511443       23.1528      -2.00626             0       11.4885      0.321526             0       21.2432       1.75734             0       1.57871             0             0      0.180326   2.16462e-15      0.215976        102477        103257        246647   3.96599e-15
   0.00750751        288.14       288.689     0.0501063       22.4201      -2.18105             0       11.4798        0.3395             0        20.918       1.77274             0       1.77838             0             0      0.181739   2.12426e-15      0.209831        102476        103257        246473   3.89205e-15
   0.00800801       288.105       288.688     0.0490797       21.6897      -2.35566             0       11.4711      0.357464             0       20.5944       1.78796             0       1.97832             0             0      0.183174   2.08338e-15      0.203592        102474        103257        246299   3.81713e-15
   0.00850851       288.042       288.687     0.0487536       21.0982      -2.51896             0       11.4628      0.374754             0       20.3645        1.7931             0       2.19423             0             0      0.185929   2.00989e-15      0.191616        102473        103257        246098   3.68249e-15
   0.00900901       287.977       288.686      0.048444       20.5101      -2.68157             0       11.4545      0.392036             0        20.135       1.79817             0       2.41048             0             0      0.188744   1.93482e-15      0.179375        102472        103256        245897   3.54495e-15
   0.00950951       287.842       288.685     0.0490374       20.1019      -2.80603             0       11.4422      0.408829             0       19.9243        1.7997             0       2.64468             0             0      0.194876   1.77372e-15      0.152712        102471        103256        245676   3.24978e-15
      0.01001       287.707       288.685     0.0496508       19.6979      -2.92921             0       11.4296      0.425617             0       19.7124       1.80127             0       2.87926             0             0      0.201023   1.61226e-15      0.125988        102470        103256        245454   2.95395e-15
    0.0105105       287.573       288.684     0.0512434       19.4977      -2.98893             0        11.409      0.442186             0       19.4406       1.80492             0       3.13298             0             0      0.207863    1.4333e-15     0.0962486        102469        103256        245219   2.62607e-15
     0.011011       287.441       288.684     0.0528434       19.3016       -3.0469             0       11.3881      0.458755             0       19.1666       1.80864             0       3.38709             0             0      0.214618   1.25653e-15     0.0668782        102468        103255        244984   2.30219e-15
    0.0115115       287.428       288.683     0.0547757       19.2878      -3.02734             0       11.3571      0.475283             0       18.7872       1.81511             0       3.65927             0             0      0.217605   1.17669e-15      0.053892        102466        103255        244742   2.15591e-15
     0.012012       287.418       288.683     0.0566986       19.2761      -3.00549             0       11.3258      0.491808             0       18.4048       1.82154             0       3.93178             0             0      0.220528   1.09843e-15     0.0411837        102465        103255        244501   2.01254e-15
    0.0125125       287.494       288.683     0.0582411       19.3486      -2.89062             0       11.2835      0.508235             0       17.9032       1.82657             0       4.21783             0             0      0.220852    1.0848e-15     0.0397737        102463        103254        244261   1.98755e-15
     0.013013        287.57       288.683     0.0597664       19.4202      -2.77372             0       11.2409      0.524651             0       17.3982        1.8314             0       4.50406             0             0      0.221157   1.07173e-15     0.0384498        102461        103254        244021    1.9636e-15
    0.0135135       287.697       288.683      0.060649       19.4605      -2.58069             0       11.1861      0.540644             0       16.7671       1.82898             0       4.79699             0             0      0.220719   1.07987e-15     0.0403531        102459        103254        243790   1.97852e-15
     0.014014       287.824       288.683      0.061517       19.4972       -2.3866             0        11.131      0.556606             0       16.1321       1.82613             0       5.08983             0             0      0.220268   1.08881e-15      0.042315        102457        103253        243560    1.9949e-15
    0.0145145       287.939       288.684     0.0618831       19.4094      -2.15534             0        11.062      0.571532             0       15.3615       1.80819             0       5.37932             0             0      0.219349   1.12563e-15     0.0463074        102455        103253        243347   2.06237e-15
     0.015015       288.052       288.685     0.0622398       19.3156      -1.92384             0       10.9925      0.586404             0       14.5869       1.78953             0        5.6683             0             0      0.218413   1.16371e-15     0.0503797        102453        103252        243136   2.13214e-15
    0.0155155       288.113       288.686     0.0622901       19.0304      -1.68434             0       10.9073      0.599573             0       13.6836       1.74757             0       5.94048             0             0      0.216882   1.24246e-15     0.0570368        102450        103252        242946   2.27642e-15
     0.016016       288.173       288.687     0.0623331       18.7383      -1.44552             0       10.8217      0.612669             0       12.7776       1.70469             0        6.2116             0             0      0.215341   1.32181e-15     0.0637345        102447        103252        242758    2.4218e-15
    0.0165165       288.229       288.688     0.0621551       18.2338      -1.22728             0       10.7195      0.623552             0       11.7871       1.63427             0       6.45029             0             0      0.213518   1.41927e-15     0.0716613        102444        103252        242591   2.60037e-15
     0.017017       288.285       288.689     0.0619765       17.7225      -1.01096             0       10.6168      0.634343             0       10.7967       1.56292             0       6.68725             0             0      0.211717   1.51573e-15     0.0794895        102441        103251        242425    2.7771e-15
    0.0175175       288.306        288.69     0.0617829       17.0165     -0.849396             0       10.4983      0.642509             0       9.80655       1.46515             0       6.87497             0             0      0.210561   1.58364e-15     0.0845161        102438        103251        242274   2.90152e-15
     0.018018       288.325       288.692     0.0615892        16.306     -0.691387             0       10.3793      0.650563             0       8.82056       1.36656             0       7.06022             0             0      0.209434   1.65001e-15     0.0894181        102436        103251        242123   3.02312e-15
    0.0185185        288.28       288.693      0.061394        15.475     -0.628505             0       10.2477      0.655589             0       7.94667       1.24615             0       7.17934             0             0      0.209074   1.67536e-15     0.0909825        102434        103251        241977   3.06958e-15
     0.019019       288.235       288.695     0.0611889       14.6452     -0.570456             0       10.1158      0.660487             0       7.08136       1.12516             0        7.2953             0             0      0.208717   1.69995e-15     0.0925361        102432        103250        241830   3.11463e-15
    0.0195195       288.175       288.696     0.0607348       13.8441     -0.634748             0        9.9769      0.662152             0       6.43345      0.989736             0       7.33134             0             0      0.208422   1.70519e-15     0.0938175        102431        103250        241680   3.12422e-15
      0.02002       288.118       288.698     0.0602635        13.051     -0.703661             0       9.83796       0.66369             0       5.79673      0.853987             0       7.36384             0             0      0.208086   1.71073e-15     0.0952809        102430        103250        241529   3.13437e-15
    0.0205205       288.102       288.701     0.0593819        12.446     -0.883446             0       9.69828      0.662188             0       5.42871       0.71045             0       7.31161             0             0      0.206745   1.72374e-15      0.101109        102430        103250        241374   3.15821e-15
     0.021021       288.087       288.703     0.0584796       11.8495       -1.0654             0       9.55875       0.66058             0        5.0717      0.566735             0       7.25588             0             0      0.205348   1.73702e-15      0.107182        102430        103250        241220   3.18254e-15
    0.0215215       288.116       288.706     0.0571082       11.4452      -1.29683             0        9.4226      0.656567             0       4.96578      0.418937             0       7.12056             0             0      0.202664   1.75652e-15      0.118851        102430        103250        241070   3.21827e-15
     0.022022       288.146       288.709     0.0557235       11.0403      -1.52756             0       9.28669      0.652475             0       4.86893      0.271207             0       6.98209             0             0      0.199965   1.77583e-15      0.130586        102430        103251        240920   3.25365e-15
    0.0225225       288.186       288.712     0.0540491       10.6218      -1.74285             0       9.15568      0.646668             0       4.96933      0.124928             0       6.77505             0             0      0.196937   1.79084e-15      0.143753        102430        103251        240781   3.28115e-15
     0.023023       288.226       288.716     0.0523855       10.1939      -1.95668             0       9.02494      0.640778             0       5.07697    -0.0209557             0        6.5654             0             0      0.193946    1.8058e-15      0.156755        102430        103251        240643   3.30857e-15
    0.0235235       288.251       288.719     0.0509438        9.5719      -2.14025             0       8.89979      0.633156             0       5.33513     -0.158647             0       6.30148             0             0      0.191747   1.81974e-15      0.166316        102430        103251        240513   3.33411e-15
     0.024024       288.276       288.722     0.0495299       8.94144      -2.32253             0       8.77501      0.625423             0       5.59946     -0.295572             0       6.03552             0             0      0.189604    1.8336e-15      0.175633        102430        103252        240383    3.3595e-15
    0.0245245       288.284       288.726     0.0486665       8.14337      -2.47921             0       8.65768      0.615498             0       5.98633     -0.417322             0       5.72895             0             0      0.188577   1.84592e-15      0.180102        102431        103252        240252   3.38207e-15
     0.025025       288.292       288.729     0.0478202       7.34275      -2.63402             0       8.54096      0.605457             0       6.37753      -0.53782             0       5.42097             0             0      0.187583   1.85796e-15      0.184422        102432        103253        240120   3.40414e-15
    0.0255255       288.298       288.733     0.0472983       6.49372      -2.75338             0       8.43601      0.593216             0       6.85068     -0.634535             0       5.08595             0             0      0.187242    1.8648e-15      0.185905        102434        103253        239981   3.41666e-15
     0.026026       288.306       288.737     0.0467669       5.64643      -2.87087             0       8.33193      0.580882             0        7.3247     -0.729631             0       4.75047             0             0      0.186916   1.87129e-15      0.187321        102436        103254        239841   3.42855e-15
    0.0265265       288.334       288.741     0.0460629       4.83092      -2.95406             0       8.24378       0.56686             0       7.81428      -0.79522             0       4.40652             0             0      0.186873   1.87158e-15      0.187509        102439        103254        239698   3.42909e-15
     0.027027       288.363       288.746     0.0453241       4.02018      -3.03592             0       8.15658       0.55276             0       8.30142     -0.858897             0        4.0632             0             0      0.186845   1.87138e-15      0.187632        102442        103255        239556   3.42872e-15
    0.0275275       288.435       288.753     0.0439761       3.29289      -3.09461             0       8.08623      0.537313             0       8.74575     -0.889075             0       3.73092             0             0      0.187082   1.86251e-15      0.186599        102446        103255        239422   3.41248e-15
     0.028028       288.509       288.759     0.0426396       2.57393      -3.15126             0       8.01689      0.521815             0        9.1845     -0.917212             0       3.40019             0             0      0.187336   1.85302e-15      0.185497        102450        103255        239289   3.39509e-15
    0.0285285       288.618       288.767     0.0414964       1.99537      -3.17341             0       7.96444      0.505485             0       9.52938     -0.910955             0       3.09545             0             0      0.187859   1.83304e-15       0.18322        102455        103256        239177   3.35848e-15
     0.029029       288.726       288.775     0.0404342       1.42836       -3.1919             0       7.91305      0.489184             0       9.86497     -0.903342             0       2.79292             0             0      0.188406   1.81255e-15      0.180841        102459        103256        239068   3.32093e-15
    0.0295295       288.814       288.782     0.0406873       1.04873      -3.15075             0         7.879      0.473365             0       10.0496     -0.873722             0       2.52624             0             0      0.189336    1.7837e-15      0.176801        102464        103256        238995   3.26807e-15
      0.03003       288.899       288.788     0.0409711      0.682449       -3.1054             0       7.84597       0.45764             0       10.2231     -0.843878             0       2.26214             0             0      0.190301   1.75461e-15      0.172605        102470        103257        238926   3.21476e-15
    0.0305305       288.937       288.792     0.0417384      0.525306      -2.99419             0       7.82877      0.443389             0       10.2222     -0.810522             0       2.03836             0             0      0.191824   1.72169e-15       0.16598        102474        103257        238912   3.15446e-15
     0.031031       288.972       288.795      0.042469       0.38129      -2.88006             0       7.81232      0.429223             0       10.2127     -0.777564             0       1.81727             0             0      0.193355   1.68927e-15      0.159325        102479        103258        238903   3.09505e-15
    0.0315315       288.983       288.794     0.0426457      0.435871      -2.72193             0        7.8071      0.416359             0        10.073     -0.750612             0       1.63673             0             0      0.194992   1.66415e-15       0.15221        102484        103258        238961   3.04904e-15
     0.032032       288.994       288.794     0.0427794      0.499361      -2.56313             0       7.80221      0.403542             0       9.93066     -0.724105             0       1.45871             0             0      0.196618   1.63991e-15      0.145137        102488        103258        239024   3.00463e-15
    0.0325325       288.994       288.792     0.0422847      0.693147      -2.39471             0       7.80198      0.391412             0       9.74927     -0.704104             0       1.31741             0             0      0.198102   1.62845e-15      0.138687        102492        103258        239157   2.98363e-15
     0.033033       288.994        288.79     0.0417551      0.888321      -2.22734             0       7.80169      0.379307             0       9.57071     -0.684401             0       1.17818             0             0      0.199593   1.61742e-15      0.132204        102495        103259        239294    2.9634e-15
    0.0335335       288.986       288.787     0.0407318       1.10315      -2.07487             0       7.80059      0.367548             0       9.43207     -0.668924             0       1.06811             0             0      0.201192   1.61238e-15      0.125252        102499        103259        239493   2.95418e-15
     0.034034       288.979       288.783     0.0396776       1.31365      -1.92402             0       7.79931      0.355801             0       9.29802      -0.65353             0      0.959537             0             0      0.202788   1.60716e-15      0.118312        102502        103259        239696   2.94462e-15
    0.0345345       288.967       288.778     0.0381997       1.46491      -1.79542             0       7.79541      0.344218             0       9.22666     -0.639262             0      0.871571             0             0      0.204344   1.59947e-15      0.111547        102504        103259        239947   2.93053e-15
     0.035035       288.953       288.773      0.036709       1.61135      -1.66838             0       7.79142      0.332631             0       9.15824     -0.624855             0      0.784671             0             0      0.205914   1.59042e-15      0.104722        102507        103259        240201   2.91394e-15
    0.0355355       288.931       288.766     0.0350479       1.69381      -1.56188             0       7.78625       0.32098             0       9.12877     -0.608607             0      0.711936             0             0      0.207669   1.56327e-15     0.0970917        102509        103260        240490   2.86421e-15
     0.036036       288.906       288.759      0.033412       1.77434      -1.45658             0       7.78114      0.309315             0        9.0999     -0.592136             0      0.640042             0             0       0.20947   1.53269e-15     0.0892629        102512        103260        240780   2.80817e-15
    0.0365365       288.862       288.752     0.0321013       1.83006      -1.36674             0       7.77691      0.297476             0        9.0789     -0.572787             0      0.578982             0             0      0.211859   1.45774e-15     0.0788756        102514        103260        241096   2.67084e-15
     0.037037       288.817       288.745     0.0308465       1.88638      -1.27775             0        7.7728      0.285625             0       9.05737     -0.553274             0      0.518643             0             0      0.214269   1.37868e-15      0.068396        102515        103260        241413   2.52599e-15
    0.0375375       288.758       288.738     0.0302902       1.95013      -1.19934             0       7.77035       0.27363             0       9.02944      -0.53172             0      0.467305             0             0      0.216944   1.24826e-15     0.0567635        102517        103260        241747   2.28704e-15
     0.038038         288.7       288.731     0.0297859       2.01489      -1.12153             0       7.76801      0.261633             0       9.00106     -0.510101             0      0.416594             0             0      0.219583   1.11622e-15     0.0452894        102519        103260        242083   2.04513e-15
    0.0385385       288.647       288.727     0.0299129       2.09191      -1.05091             0       7.76699      0.249603             0       8.96734     -0.487684             0      0.373495             0             0       0.22178   9.64532e-16     0.0357406        102520        103260        242429    1.7672e-15
     0.039039       288.596       288.722     0.0300617       2.16919     -0.980809             0       7.76601      0.237573             0       8.93364     -0.465253             0      0.330944             0             0      0.223917   8.13731e-16     0.0264456        102522        103260        242775   1.49091e-15
    0.0395395        288.56       288.719     0.0304682       2.24967     -0.916857             0       7.76569      0.225548             0       8.90028     -0.442649             0      0.294878             0             0      0.225365   6.73454e-16     0.0201493        102523        103260        243125   1.23389e-15
      0.04004       288.525       288.717     0.0308736       2.32973     -0.853391             0       7.76539      0.213524             0       8.86727     -0.420041             0       0.25929             0             0      0.226769   5.35386e-16     0.0140488        102524        103260        243474   9.80928e-16
    0.0405405       288.503       288.715     0.0312662        2.4051      -0.79551             0       7.76529      0.201512             0       8.83825     -0.397382             0      0.229191             0             0      0.227654   4.22736e-16      0.010198        102525        103260        243820   7.74531e-16
     0.041041       288.482       288.713     0.0316467       2.47978     -0.738067             0        7.7652      0.189501             0       8.80966     -0.374724             0      0.199508             0             0      0.228505   3.13145e-16    0.00649783        102526        103260        244164    5.7374e-16
    0.0415415       288.471       288.712     0.0318906       2.54674     -0.685512             0       7.76516        0.1775             0       8.78573     -0.352089             0      0.174482             0             0      0.228969    2.3781e-16     0.0044828        102527        103260        244498   4.35713e-16
     0.042042        288.46       288.711     0.0321248       2.61294     -0.633331             0       7.76511      0.165501             0       8.76223     -0.329454             0      0.149825             0             0       0.22941   1.65197e-16    0.00256406        102528        103260        244830   3.02672e-16
    0.0425425       288.456       288.711     0.0322528       2.67077     -0.585218             0       7.76503       0.15352             0       8.74334      -0.30682             0       0.12918             0             0       0.22961   1.22263e-16    0.00169529        102529        103260        245145   2.24009e-16
     0.043043       288.451       288.711     0.0323749       2.72788     -0.537409             0       7.76496      0.141539             0       8.72472     -0.284189             0      0.108865             0             0      0.229799   8.10968e-17   0.000874019        102530        103261        245457   1.48584e-16
    0.0435435        288.45       288.711     0.0324333       2.77729      -0.49283             0       7.76497       0.12957             0       8.70891      -0.26159             0     0.0920498             0             0      0.229872   5.87156e-17   0.000557528        102530        103261        245746   1.07578e-16
     0.044044       288.448       288.711     0.0324883       2.82584      -0.44852             0       7.76489      0.117603             0        8.6935     -0.238993             0     0.0755373             0             0       0.22994   3.73357e-17   0.000260144        102531        103261        246032    6.8406e-17
    0.0445445       288.448       288.711     0.0325092       2.86549        -0.407             0       7.76387      0.105657             0       8.68231     -0.216418             0     0.0621585             0             0      0.229963   2.63333e-17   0.000160783        102531        103261        246288   4.82475e-17
     0.045045       288.447       288.711     0.0325311       2.90476     -0.365653             0       7.76208      0.093714             0       8.66756     -0.193787             0     0.0490578             0             0      0.229984   1.58743e-17   6.79222e-05        102532        103261        246542   2.90847e-17
    0.0455455       288.448       288.711     0.0325634       2.94031      -0.32605             0       7.75255     0.0818012             0       8.61693     -0.170592             0      0.038769             0             0      0.229991   1.09094e-17   4.07775e-05        102532        103261        246760   1.99881e-17