# PROC_ID PARCEL_ID CellI X Y Z p Ux Uy Uz T C3H8 CO2 H2O N2 O2 largest_pointer wherePositive largest_pointerWP
2.000000e+00 9.000000e+01 1.080000e+03 8.059180e-02 2.014520e-02 5.000000e-04 1.026920e+05 1.140240e+01 4.385510e+00 0.000000e+00 2.928570e+02 1.831410e-01 1.249240e-11 6.818300e-12 6.289810e-01 1.878780e-01 5.000000e+00 0.000000e+00 0.000000e+00
2.000000e+00 8.900000e+01 5.600000e+02 8.015120e-02 1.079590e-02 5.000000e-04 1.026250e+05 1.715970e+01 -3.060190e+00 0.000000e+00 2.976720e+02 2.784080e-01 2.578140e-10 1.407140e-10 5.556260e-01 1.659660e-01 7.000000e+00 0.000000e+00 0.000000e+00
2.000000e+00 8.800000e+01 5.590000e+02 7.941230e-02 1.045270e-02 5.000000e-04 1.026300e+05 1.612250e+01 -2.473080e+00 0.000000e+00 2.971610e+02 2.797060e-01 4.136950e-10 2.257930e-10 5.546270e-01 1.656680e-01 9.000000e+00 0.000000e+00 0.000000e+00
2.000000e+00 8.700000e+01 5.580000e+02 7.837760e-02 1.086730e-02 5.000000e-04 1.026410e+05 1.510360e+01 -1.275000e+00 0.000000e+00 2.973920e+02 2.757080e-01 9.713360e-10 5.301510e-10 5.577040e-01 1.665880e-01 6.000000e+00 0.000000e+00 0.000000e+00
2.000000e+00 9.100000e+01 1.183000e+03 7.996260e-02 2.293070e-02 5.000000e-04 1.026960e+05 1.088190e+01 4.676260e+00 0.000000e+00 2.934090e+02 1.895480e-01 6.005260e-12 3.277650e-12 6.240480e-01 1.864040e-01 5.000000e+00 0.000000e+00 0.000000e+00
2.000000e+00 8.600000e+01 6.590000e+02 7.591200e-02 1.264350e-02 5.000000e-04 1.026390e+05 1.023040e+01 3.393220e+00 0.000000e+00 2.954180e+02 2.733570e-01 1.220560e-09 6.661770e-10 5.595140e-01 1.671290e-01 5.000000e+00 0.000000e+00 0.000000e+00
2.000000e+00 7.400000e+01 6.220000e+02 9.031000e-02 1.174780e-02 5.000000e-04 1.027050e+05 1.540730e+01 2.432140e+00 0.000000e+00 2.887710e+02 1.669350e-01 3.448850e-11 1.882370e-11 6.414590e-01 1.916060e-01 5.000000e+00 0.000000e+00 0.000000e+00
2.000000e+00 9.200000e+01 1.184000e+03 8.003800e-02 2.244580e-02 5.000000e-04 1.027000e+05 1.036560e+01 5.685710e+00 0.000000e+00 2.933120e+02 1.948840e-01 5.657600e-12 3.087900e-12 6.199400e-01 1.851760e-01 9.000000e+00 0.000000e+00 0.000000e+00
2.000000e+00 7.300000e+01 5.700000e+02 9.077290e-02 1.021470e-02 5.000000e-04 1.026970e+05 1.651180e+01 2.180710e+00 0.000000e+00 2.896780e+02 1.585850e-01 5.236480e-11 2.858050e-11 6.478880e-01 1.935270e-01 9.000000e+00 0.000000e+00 0.000000e+00
2.000000e+00 7.200000e+01 4.660000e+02 9.018340e-02 8.783780e-03 5.000000e-04 1.026830e+05 1.709410e+01 1.042260e+00 0.000000e+00 2.896160e+02 1.308740e-01 6.915640e-11 3.774530e-11 6.692270e-01 1.998990e-01 8.000000e+00 0.000000e+00 0.000000e+00
2.000000e+00 6.800000e+01 4.600000e+01 8.608550e-02 0.000000e+00 5.000000e-04 1.026430e+05 1.675360e+01 1.040100e-01 0.000000e+00 2.880860e+02 4.696450e-03 9.525240e-13 5.198840e-13 7.663840e-01 2.289200e-01 7.000000e+00 0.000000e+00 0.000000e+00
2.000000e+00 6.900000e+01 1.500000e+02 8.607080e-02 2.103580e-03 5.000000e-04 1.026410e+05 1.668680e+01 6.182310e-01 0.000000e+00 2.883710e+02 1.825480e-02 1.129760e-11 6.166180e-12 7.559440e-01 2.258010e-01 5.000000e+00 0.000000e+00 0.000000e+00
2.000000e+00 7.000000e+01 2.020000e+02 8.611660e-02 3.920870e-03 5.000000e-04 1.026400e+05 1.667040e+01 8.873230e-01 0.000000e+00 2.888960e+02 3.294630e-02 2.981700e-11 1.627400e-11 7.446310e-01 2.224220e-01 5.000000e+00 0.000000e+00 0.000000e+00
2.000000e+00 7.100000e+01 4.120000e+02 8.863820e-02 7.449490e-03 5.000000e-04 1.026570e+05 1.765650e+01 2.305080e+00 0.000000e+00 2.935890e+02 1.207780e-01 1.542620e-10 8.419530e-11 6.770000e-01 2.022220e-01 5.000000e+00 0.000000e+00 0.000000e+00
2.000000e+00 7.500000e+01 5.170000e+02 8.938340e-02 9.994120e-03 5.000000e-04 1.026770e+05 1.792920e+01 2.840410e+00 0.000000e+00 2.942640e+02 1.884240e-01 1.249780e-10 6.821250e-11 6.249150e-01 1.866620e-01 5.000000e+00 0.000000e+00 0.000000e+00
2.000000e+00 9.300000e+01 1.132000e+03 8.019940e-02 2.150270e-02 5.000000e-04 1.026970e+05 1.085080e+01 5.214320e+00 0.000000e+00 2.931580e+02 1.869260e-01 8.922470e-12 4.869850e-12 6.260670e-01 1.870070e-01 5.000000e+00 0.000000e+00 0.000000e+00
2.000000e+00 7.600000e+01 8.610000e+02 6.954730e-02 1.651900e-02 5.000000e-04 1.026170e+05 1.082710e+01 3.511550e+00 0.000000e+00 2.961630e+02 2.922780e-01 7.127810e-10 3.890330e-10 5.449460e-01 1.627760e-01 5.000000e+00 0.000000e+00 0.000000e+00
2.000000e+00 9.400000e+01 1.028000e+03 8.024500e-02 1.993250e-02 5.000000e-04 1.026870e+05 1.177880e+01 3.306190e+00 0.000000e+00 2.926280e+02 1.829680e-01 1.719110e-11 9.382860e-12 6.291140e-01 1.879180e-01 7.000000e+00 0.000000e+00 0.000000e+00
2.000000e+00 1.130000e+02 3.550000e+02 8.363130e-02 6.289000e-03 5.000000e-04 1.026290e+05 1.887230e+01 5.625800e-01 0.000000e+00 3.111930e+02 1.540920e-01 6.484790e-10 3.539370e-10 6.513500e-01 1.945580e-01 8.000000e+00 0.000000e+00 0.000000e+00
2.000000e+00 1.120000e+02 3.040000e+02 8.408480e-02 5.812030e-03 5.000000e-04 1.026310e+05 1.839840e+01 1.801680e+00 0.000000e+00 2.969020e+02 6.968790e-02 3.387490e-10 1.848880e-10 7.163410e-01 2.139710e-01 5.000000e+00 0.000000e+00 0.000000e+00
2.000000e+00 1.110000e+02 2.520000e+02 8.419470e-02 4.994180e-03 5.000000e-04 1.026330e+05 1.775330e+01 1.341760e+00 0.000000e+00 2.911740e+02 4.815860e-02 1.477420e-10 8.063690e-11 7.329180e-01 2.189230e-01 5.000000e+00 0.000000e+00 0.000000e+00
2.000000e+00 1.140000e+02 3.550000e+02 8.321320e-02 6.378230e-03 5.000000e-04 1.026290e+05 1.887230e+01 5.625800e-01 0.000000e+00 3.111930e+02 1.540920e-01 6.484790e-10 3.539370e-10 6.513500e-01 1.945580e-01 8.000000e+00 0.000000e+00 0.000000e+00
2.000000e+00 1.100000e+02 2.510000e+02 8.396310e-02 4.237550e-03 5.000000e-04 1.026330e+05 1.817990e+01 1.154160e+00 0.000000e+00 2.930140e+02 5.873730e-02 3.107910e-10 1.696280e-10 7.247730e-01 2.164900e-01 8.000000e+00 0.000000e+00 0.000000e+00
2.000000e+00 1.090000e+02 1.470000e+02 8.354940e-02 2.962920e-03 5.000000e-04 1.026370e+05 1.754980e+01 5.204770e-01 0.000000e+00 2.886780e+02 1.957680e-02 4.855110e-11 2.649900e-11 7.549260e-01 2.254970e-01 6.000000e+00 0.000000e+00 0.000000e+00
2.000000e+00 1.080000e+02 9.500000e+01 8.333060e-02 1.648870e-03 5.000000e-04 1.026380e+05 1.760280e+01 2.250610e-01 0.000000e+00 2.882510e+02 7.906000e-03 1.298280e-11 7.085960e-12 7.639120e-01 2.281820e-01 5.000000e+00 0.000000e+00 0.000000e+00
2.000000e+00 1.070000e+02 9.500000e+01 8.320050e-02 1.064860e-03 5.000000e-04 1.026380e+05 1.760280e+01 2.250610e-01 0.000000e+00 2.882510e+02 7.906000e-03 1.298280e-11 7.085960e-12 7.639120e-01 2.281820e-01 5.000000e+00 0.000000e+00 0.000000e+00
2.000000e+00 1.060000e+02 4.300000e+01 8.309790e-02 0.000000e+00 5.000000e-04 1.026390e+05 1.749500e+01 1.254000e-01 0.000000e+00 2.881400e+02 2.860830e-03 3.245860e-12 1.771580e-12 7.677970e-01 2.293420e-01 5.000000e+00 0.000000e+00 0.000000e+00
2.000000e+00 1.150000e+02 3.020000e+02 8.297920e-02 5.649750e-03 5.000000e-04 1.026300e+05 1.803410e+01 3.137850e-01 0.000000e+00 3.088510e+02 1.088010e-01 8.224550e-10 4.488930e-10 6.862240e-01 2.049750e-01 1.100000e+01 0.000000e+00 0.000000e+00
2.000000e+00 1.180000e+02 2.500000e+02 8.208300e-02 4.900500e-03 5.000000e-04 1.026310e+05 1.833000e+01 7.002000e-01 0.000000e+00 2.967460e+02 8.015890e-02 5.862350e-10 3.199650e-10 7.082780e-01 2.115630e-01 6.000000e+00 0.000000e+00 0.000000e+00
2.000000e+00 7.700000e+01 9.120000e+02 6.869510e-02 1.776750e-02 5.000000e-04 1.026230e+05 1.263940e+01 2.834900e+00 0.000000e+00 2.998770e+02 2.568600e-01 1.759220e-09 9.601740e-10 5.722160e-01 1.709240e-01 5.000000e+00 0.000000e+00 0.000000e+00
2.000000e+00 1.160000e+02 1.450000e+02 8.129940e-02 2.963780e-03 5.000000e-04 1.026350e+05 1.794800e+01 8.187850e-02 0.000000e+00 2.896070e+02 4.041050e-02 1.954200e-10 1.066590e-10 7.388840e-01 2.207050e-01 6.000000e+00 0.000000e+00 0.000000e+00
2.000000e+00 1.280000e+02 8.190000e+02 7.945470e-02 1.563740e-02 5.000000e-04 1.026410e+05 1.317620e+01 -3.741960e+00 0.000000e+00 2.934040e+02 2.246450e-01 3.749620e-11 2.046530e-11 5.970230e-01 1.783320e-01 5.000000e+00 0.000000e+00 0.000000e+00
2.000000e+00 1.270000e+02 8.190000e+02 7.927590e-02 1.547830e-02 5.000000e-04 1.026410e+05 1.317620e+01 -3.741960e+00 0.000000e+00 2.934040e+02 2.246450e-01 3.749620e-11 2.046530e-11 5.970230e-01 1.783320e-01 5.000000e+00 0.000000e+00 0.000000e+00
2.000000e+00 1.170000e+02 1.440000e+02 8.001570e-02 2.726210e-03 5.000000e-04 1.026330e+05 1.795880e+01 -1.258640e-01 0.000000e+00 2.904210e+02 5.335210e-02 2.827400e-10 1.543190e-10 7.289200e-01 2.177280e-01 5.000000e+00 0.000000e+00 0.000000e+00
2.000000e+00 1.290000e+02 8.710000e+02 7.932460e-02 1.667590e-02 5.000000e-04 1.026520e+05 1.341040e+01 -2.579200e+00 0.000000e+00 2.931490e+02 2.105770e-01 3.981370e-11 2.173020e-11 6.078550e-01 1.815680e-01 8.000000e+00 0.000000e+00 0.000000e+00
2.000000e+00 1.260000e+02 8.700000e+02 7.874710e-02 1.630390e-02 5.000000e-04 1.026380e+05 1.441570e+01 -3.100060e+00 0.000000e+00 2.931130e+02 2.134350e-01 6.133790e-11 3.347800e-11 6.056540e-01 1.809110e-01 9.000000e+00 0.000000e+00 0.000000e+00
2.000000e+00 1.300000e+02 9.220000e+02 7.859750e-02 1.778390e-02 5.000000e-04 1.026420e+05 1.485330e+01 -2.281820e+00 0.000000e+00 2.925370e+02 1.933720e-01 6.240390e-11 3.405980e-11 6.211030e-01 1.855250e-01 5.000000e+00 0.000000e+00 0.000000e+00
2.000000e+00 9.500000e+01 1.025000e+03 7.730250e-02 1.945880e-02 5.000000e-04 1.026440e+05 1.518040e+01 -9.878980e-01 0.000000e+00 2.907460e+02 1.448810e-01 7.045430e-11 3.845370e-11 6.584400e-01 1.966780e-01 5.000000e+00 0.000000e+00 0.000000e+00
2.000000e+00 1.310000e+02 1.025000e+03 7.703270e-02 1.928140e-02 5.000000e-04 1.026440e+05 1.518040e+01 -9.878980e-01 0.000000e+00 2.907460e+02 1.448810e-01 7.045430e-11 3.845370e-11 6.584400e-01 1.966780e-01 5.000000e+00 0.000000e+00 0.000000e+00
2.000000e+00 8.500000e+01 9.720000e+02 7.605450e-02 1.888290e-02 5.000000e-04 1.026230e+05 1.651330e+01 -2.720720e+00 0.000000e+00 2.917840e+02 1.856650e-01 1.378290e-10 7.522630e-11 6.270370e-01 1.872970e-01 5.000000e+00 0.000000e+00 0.000000e+00
2.000000e+00 1.520000e+02 3.520000e+02 8.025250e-02 6.790340e-03 5.000000e-04 1.026250e+05 1.821980e+01 -5.605130e-01 0.000000e+00 3.146810e+02 1.432630e-01 1.553120e-09 8.476850e-10 6.596860e-01 1.970510e-01 5.000000e+00 0.000000e+00 0.000000e+00
2.000000e+00 8.100000e+01 7.090000e+02 7.335780e-02 1.316380e-02 5.000000e-04 1.026270e+05 8.230620e+00 5.261160e+00 0.000000e+00 2.959370e+02 2.648600e-01 1.904140e-09 1.039270e-09 5.660570e-01 1.690830e-01 5.000000e+00 0.000000e+00 0.000000e+00
2.000000e+00 1.510000e+02 3.000000e+02 8.006140e-02 5.887750e-03 5.000000e-04 1.026270e+05 1.769970e+01 -8.245010e-01 0.000000e+00 3.130480e+02 1.130000e-01 1.090860e-09 5.953900e-10 6.829910e-01 2.040100e-01 1.000000e+01 0.000000e+00 0.000000e+00
2.000000e+00 1.500000e+02 2.470000e+02 7.930550e-02 4.374580e-03 5.000000e-04 1.026330e+05 1.777160e+01 -9.931360e-01 0.000000e+00 3.061060e+02 1.012330e-01 1.006460e-09 5.493210e-10 6.920510e-01 2.067160e-01 7.000000e+00 0.000000e+00 0.000000e+00
2.000000e+00 1.250000e+02 1.072000e+03 7.234490e-02 2.034120e-02 5.000000e-04 1.026430e+05 1.716010e+01 1.392530e+00 0.000000e+00 2.962110e+02 2.086640e-01 5.830580e-10 3.182310e-10 6.093290e-01 1.820080e-01 7.000000e+00 0.000000e+00 0.000000e+00
2.000000e+00 7.800000e+01 5.980000e+02 6.656530e-02 1.168870e-02 5.000000e-04 1.026070e+05 1.542080e+01 -8.724330e-01 0.000000e+00 3.194780e+02 2.749960e-01 2.234270e-08 1.219460e-08 5.582530e-01 1.667510e-01 8.000000e+00 0.000000e+00 0.000000e+00
2.000000e+00 1.320000e+02 1.125000e+03 7.355130e-02 2.164190e-02 5.000000e-04 1.026440e+05 1.630680e+01 -1.924610e-01 0.000000e+00 2.901930e+02 1.363140e-01 2.030530e-10 1.108260e-10 6.650400e-01 1.986460e-01 5.000000e+00 0.000000e+00 0.000000e+00
2.000000e+00 1.490000e+02 2.460000e+02 7.822580e-02 4.568800e-03 5.000000e-04 1.026250e+05 1.760250e+01 -9.686740e-01 0.000000e+00 3.082440e+02 9.837580e-02 1.130180e-09 6.168490e-10 6.942510e-01 2.073740e-01 9.000000e+00 0.000000e+00 0.000000e+00
2.000000e+00 1.440000e+02 3.500000e+01 7.542060e-02 0.000000e+00 5.000000e-04 1.026080e+05 1.776110e+01 6.598530e-02 0.000000e+00 2.882320e+02 3.762500e-03 1.353800e-11 7.388970e-12 7.671030e-01 2.291350e-01 5.000000e+00 0.000000e+00 0.000000e+00
2.000000e+00 1.450000e+02 8.700000e+01 7.527470e-02 1.395210e-03 5.000000e-04 1.026080e+05 1.766850e+01 3.967930e-01 0.000000e+00 2.886220e+02 1.148340e-02 5.197180e-11 2.836600e-11 7.611580e-01 2.273590e-01 5.000000e+00 0.000000e+00 0.000000e+00
2.000000e+00 1.460000e+02 1.380000e+02 7.498360e-02 2.455650e-03 5.000000e-04 1.026100e+05 1.784500e+01 8.636340e-01 0.000000e+00 2.903520e+02 2.395320e-02 1.582620e-10 8.637860e-11 7.515540e-01 2.244930e-01 6.000000e+00 0.000000e+00 0.000000e+00
2.000000e+00 1.470000e+02 3.460000e+02 7.499210e-02 6.074130e-03 5.000000e-04 1.026210e+05 1.884780e+01 3.141350e+00 0.000000e+00 3.192190e+02 6.709810e-02 5.612700e-09 3.063390e-09 7.183340e-01 2.145680e-01 6.000000e+00 0.000000e+00 0.000000e+00
2.000000e+00 1.480000e+02 3.480000e+02 7.666010e-02 6.170760e-03 5.000000e-04 1.026240e+05 1.847790e+01 -2.838860e-01 0.000000e+00 3.241850e+02 8.854610e-02 4.091060e-09 2.232880e-09 7.018200e-01 2.096340e-01 8.000000e+00 0.000000e+00 0.000000e+00
2.000000e+00 1.660000e+02 1.070000e+03 7.066660e-02 2.010760e-02 5.000000e-04 1.026510e+05 1.581540e+01 2.922140e+00 0.000000e+00 2.983550e+02 2.053470e-01 9.590180e-10 5.234280e-10 6.118770e-01 1.827750e-01 9.000000e+00 0.000000e+00 0.000000e+00
2.000000e+00 1.670000e+02 1.071000e+03 7.152970e-02 2.081550e-02 5.000000e-04 1.026490e+05 1.651630e+01 2.568160e+00 0.000000e+00 2.973730e+02 2.106000e-01 7.214210e-10 3.937490e-10 6.078350e-01 1.815650e-01 5.000000e+00 0.000000e+00 0.000000e+00
2.000000e+00 1.650000e+02 9.110000e+02 6.765200e-02 1.744390e-02 5.000000e-04 1.026240e+05 1.287870e+01 1.870100e+00 0.000000e+00 3.016150e+02 2.329370e-01 2.711490e-09 1.479920e-09 5.906390e-01 1.764240e-01 5.000000e+00 0.000000e+00 0.000000e+00
2.000000e+00 1.680000e+02 1.071000e+03 7.114710e-02 2.098550e-02 5.000000e-04 1.026490e+05 1.651630e+01 2.568160e+00 0.000000e+00 2.973730e+02 2.106000e-01 7.214210e-10 3.937490e-10 6.078350e-01 1.815650e-01 5.000000e+00 0.000000e+00 0.000000e+00
2.000000e+00 1.640000e+02 7.520000e+02 6.496070e-02 1.475410e-02 5.000000e-04 1.026350e+05 1.203730e+01 8.493900e-01 0.000000e+00 3.118730e+02 2.701720e-01 9.942800e-09 5.426740e-09 5.619680e-01 1.678600e-01 5.000000e+00 0.000000e+00 0.000000e+00
2.000000e+00 1.530000e+02 5.540000e+02 7.449820e-02 1.075650e-02 5.000000e-04 1.026510e+05 1.796060e+01 3.400290e+00 0.000000e+00 3.259250e+02 1.689890e-01 1.243680e-08 6.787950e-09 6.398800e-01 1.911320e-01 5.000000e+00 0.000000e+00 0.000000e+00
2.000000e+00 1.690000e+02 1.070000e+03 7.028040e-02 2.093490e-02 5.000000e-04 1.026510e+05 1.581540e+01 2.922140e+00 0.000000e+00 2.983550e+02 2.053470e-01 9.590180e-10 5.234280e-10 6.118770e-01 1.827750e-01 9.000000e+00 0.000000e+00 0.000000e+00
2.000000e+00 1.630000e+02 7.510000e+02 6.339540e-02 1.471520e-02 5.000000e-04 1.026380e+05 1.204730e+01 1.882600e+00 0.000000e+00 3.156080e+02 2.697070e-01 2.565090e-08 1.400010e-08 5.623270e-01 1.679660e-01 5.000000e+00 0.000000e+00 0.000000e+00
2.000000e+00 1.890000e+02 5.540000e+02 7.483660e-02 1.023560e-02 5.000000e-04 1.026510e+05 1.796060e+01 3.400290e+00 0.000000e+00 3.259250e+02 1.689890e-01 1.243680e-08 6.787950e-09 6.398800e-01 1.911320e-01 5.000000e+00 0.000000e+00 0.000000e+00
2.000000e+00 1.620000e+02 8.020000e+02 6.241360e-02 1.526060e-02 5.000000e-04 1.026430e+05 1.120990e+01 2.783040e+00 0.000000e+00 3.145550e+02 2.422030e-01 4.222360e-08 2.304550e-08 5.835050e-01 1.742920e-01 6.000000e+00 0.000000e+00 0.000000e+00
2.000000e+00 1.880000e+02 5.030000e+02 7.546120e-02 9.661440e-03 5.000000e-04 1.026500e+05 1.991440e+01 1.074760e+00 0.000000e+00 3.293750e+02 1.456700e-01 1.276310e-08 6.966030e-09 6.578340e-01 1.964960e-01 5.000000e+00 0.000000e+00 0.000000e+00
2.000000e+00 1.870000e+02 5.020000e+02 7.498820e-02 9.071800e-03 5.000000e-04 1.026360e+05 2.066650e+01 2.174850e+00 0.000000e+00 3.337800e+02 1.435470e-01 1.468070e-08 8.012690e-09 6.594690e-01 1.969840e-01 7.000000e+00 0.000000e+00 0.000000e+00
2.000000e+00 1.860000e+02 3.980000e+02 7.417200e-02 7.792630e-03 5.000000e-04 1.026240e+05 1.901090e+01 3.563520e+00 0.000000e+00 3.281100e+02 7.506480e-02 9.898390e-09 5.402500e-09 7.122000e-01 2.127350e-01 6.000000e+00 0.000000e+00 0.000000e+00
2.000000e+00 1.850000e+02 2.930000e+02 7.339590e-02 5.835510e-03 5.000000e-04 1.026220e+05 1.836560e+01 3.438180e+00 0.000000e+00 3.090280e+02 5.499570e-02 3.680970e-09 2.009060e-09 7.276510e-01 2.173530e-01 5.000000e+00 0.000000e+00 0.000000e+00
2.000000e+00 1.840000e+02 1.370000e+02 7.300930e-02 2.837510e-03 5.000000e-04 1.026090e+05 1.837300e+01 1.019240e+00 0.000000e+00 2.900040e+02 1.644950e-02 1.756130e-10 9.584880e-11 7.573340e-01 2.262160e-01 5.000000e+00 0.000000e+00 0.000000e+00
2.000000e+00 1.900000e+02 4.980000e+02 7.081670e-02 9.778980e-03 5.000000e-04 1.025990e+05 1.942810e+01 2.359390e+00 0.000000e+00 3.392600e+02 1.830540e-01 3.843590e-08 2.097810e-08 6.290500e-01 1.878960e-01 5.000000e+00 0.000000e+00 0.000000e+00
2.000000e+00 1.830000e+02 8.400000e+01 7.295590e-02 1.625070e-03 5.000000e-04 1.026110e+05 1.890650e+01 4.918040e-01 0.000000e+00 2.885220e+02 4.068800e-03 5.433510e-11 2.965590e-11 7.668670e-01 2.290640e-01 5.000000e+00 0.000000e+00 0.000000e+00
2.000000e+00 1.820000e+02 3.200000e+01 7.288820e-02 0.000000e+00 5.000000e-04 1.026100e+05 1.886270e+01 2.292380e-01 0.000000e+00 2.882620e+02 1.536230e-03 1.164310e-11 6.354780e-12 7.688170e-01 2.296470e-01 9.000000e+00 0.000000e+00 0.000000e+00
2.000000e+00 1.610000e+02 8.030000e+02 6.310150e-02 1.539550e-02 5.000000e-04 1.026450e+05 1.169910e+01 1.514910e+00 0.000000e+00 3.106830e+02 2.364290e-01 1.232520e-08 6.727070e-09 5.879510e-01 1.756200e-01 5.000000e+00 0.000000e+00 0.000000e+00
2.000000e+00 7.900000e+01 6.980000e+02 6.235370e-02 1.395330e-02 5.000000e-04 1.026370e+05 1.328280e+01 3.274070e+00 0.000000e+00 3.254720e+02 2.598990e-01 2.252400e-07 1.229350e-07 5.698760e-01 1.702250e-01 9.000000e+00 0.000000e+00 0.000000e+00
2.000000e+00 1.240000e+02 1.056000e+03 5.671090e-02 2.002660e-02 5.000000e-04 1.026580e+05 7.838440e+00 1.174140e+01 0.000000e+00 3.104190e+02 2.658320e-01 1.655650e-07 9.036490e-08 5.653070e-01 1.688610e-01 7.000000e+00 0.000000e+00 0.000000e+00
2.000000e+00 1.700000e+02 1.169000e+03 6.578030e-02 2.222260e-02 5.000000e-04 1.026940e+05 1.224440e+01 -7.698230e-01 0.000000e+00 2.884240e+02 8.238770e-02 7.819500e-10 4.267850e-10 7.065620e-01 2.110500e-01 9.000000e+00 0.000000e+00 0.000000e+00
2.000000e+00 1.910000e+02 8.000000e+02 6.072890e-02 1.522320e-02 5.000000e-04 1.026420e+05 1.031140e+01 6.174460e+00 0.000000e+00 3.254010e+02 2.337440e-01 2.441640e-07 1.332630e-07 5.900170e-01 1.762390e-01 5.000000e+00 0.000000e+00 0.000000e+00
2.000000e+00 2.020000e+02 9.090000e+02 6.573200e-02 1.718510e-02 5.000000e-04 1.026390e+05 1.311990e+01 3.268440e-01 0.000000e+00 3.010510e+02 2.163390e-01 5.214530e-09 2.846070e-09 6.034160e-01 1.802450e-01 5.000000e+00 0.000000e+00 0.000000e+00
2.000000e+00 2.030000e+02 9.620000e+02 6.669940e-02 1.832310e-02 5.000000e-04 1.026370e+05 1.387170e+01 9.300170e-01 0.000000e+00 2.988480e+02 1.879010e-01 4.653090e-09 2.539640e-09 6.253150e-01 1.867840e-01 8.000000e+00 0.000000e+00 0.000000e+00
2.000000e+00 2.010000e+02 8.560000e+02 6.465150e-02 1.655540e-02 5.000000e-04 1.026400e+05 1.231940e+01 5.220270e-01 0.000000e+00 3.042370e+02 2.214460e-01 5.330080e-09 2.909140e-09 5.994830e-01 1.790710e-01 5.000000e+00 0.000000e+00 0.000000e+00
2.000000e+00 2.040000e+02 1.014000e+03 6.686190e-02 1.923110e-02 5.000000e-04 1.026430e+05 1.414630e+01 4.766820e-01 0.000000e+00 2.957320e+02 1.469550e-01 4.298690e-09 2.346210e-09 6.568430e-01 1.962020e-01 9.000000e+00 0.000000e+00 0.000000e+00
2.000000e+00 2.050000e+02 1.066000e+03 6.628830e-02 2.023170e-02 5.000000e-04 1.026540e+05 1.354740e+01 1.013890e-01 0.000000e+00 2.923000e+02 1.111650e-01 2.462190e-09 1.343850e-09 6.844020e-01 2.044330e-01 5.000000e+00 0.000000e+00 0.000000e+00
2.000000e+00 8.000000e+01 1.159000e+03 5.526150e-02 2.246570e-02 5.000000e-04 1.026250e+05 1.090980e+01 1.196250e+01 0.000000e+00 3.163250e+02 2.767160e-01 1.719830e-07 9.386760e-08 5.569260e-01 1.663580e-01 5.000000e+00 0.000000e+00 0.000000e+00
2.000000e+00 2.060000e+02 1.117000e+03 6.538420e-02 2.158060e-02 5.000000e-04 1.026750e+05 1.255710e+01 -8.848470e-01 0.000000e+00 2.889820e+02 8.819960e-02 1.331930e-09 7.269620e-10 7.020870e-01 2.097140e-01 5.000000e+00 0.000000e+00 0.000000e+00
2.000000e+00 2.000000e+02 8.550000e+02 6.380760e-02 1.698060e-02 5.000000e-04 1.026480e+05 1.183260e+01 9.342500e-01 0.000000e+00 3.035820e+02 2.208420e-01 8.288560e-09 4.523860e-09 5.999490e-01 1.792090e-01 6.000000e+00 0.000000e+00 0.000000e+00
2.000000e+00 8.400000e+01 1.212000e+03 5.644360e-02 2.355940e-02 5.000000e-04 1.026200e+05 1.354860e+01 9.229880e+00 0.000000e+00 3.108970e+02 3.087610e-01 1.000560e-07 5.461030e-08 5.322530e-01 1.589860e-01 8.000000e+00 0.000000e+00 0.000000e+00
2.000000e+00 2.310000e+02 3.930000e+02 6.916840e-02 7.189860e-03 5.000000e-04 1.026020e+05 2.036750e+01 1.240840e+00 0.000000e+00 3.321190e+02 1.330070e-01 6.278170e-08 3.426600e-08 6.675850e-01 1.994080e-01 6.000000e+00 0.000000e+00 0.000000e+00
2.000000e+00 2.070000e+02 1.220000e+03 6.469430e-02 2.353280e-02 5.000000e-04 1.027160e+05 1.272020e+01 -7.978450e-01 0.000000e+00 2.881780e+02 8.367130e-02 9.902440e-10 5.404710e-10 7.055730e-01 2.107560e-01 8.000000e+00 0.000000e+00 0.000000e+00
2.000000e+00 2.290000e+02 2.880000e+02 6.876600e-02 5.246050e-03 5.000000e-04 1.026160e+05 2.058250e+01 2.430110e-01 0.000000e+00 3.106940e+02 1.094590e-01 3.557390e-08 1.941610e-08 6.857240e-01 2.048180e-01 5.000000e+00 0.000000e+00 0.000000e+00
2.000000e+00 1.920000e+02 1.158000e+03 5.442990e-02 2.279720e-02 5.000000e-04 1.026170e+05 1.060090e+01 1.228930e+01 0.000000e+00 3.195230e+02 2.702240e-01 2.214860e-07 1.208860e-07 5.619240e-01 1.678510e-01 5.000000e+00 0.000000e+00 0.000000e+00
2.000000e+00 2.280000e+02 2.350000e+02 6.771830e-02 4.986140e-03 5.000000e-04 1.026160e+05 2.055950e+01 2.092810e-01 0.000000e+00 3.010110e+02 8.426480e-02 2.106720e-08 1.149840e-08 7.051170e-01 2.106190e-01 5.000000e+00 0.000000e+00 0.000000e+00
2.000000e+00 2.200000e+02 2.700000e+01 6.767700e-02 0.000000e+00 5.000000e-04 1.026170e+05 2.028880e+01 6.287860e-02 0.000000e+00 2.882590e+02 5.561600e-04 3.002410e-11 1.638700e-11 7.695720e-01 2.298720e-01 5.000000e+00 0.000000e+00 0.000000e+00
2.000000e+00 2.210000e+02 2.700000e+01 6.764390e-02 7.643970e-04 5.000000e-04 1.026170e+05 2.028880e+01 6.287860e-02 0.000000e+00 2.882590e+02 5.561600e-04 3.002410e-11 1.638700e-11 7.695720e-01 2.298720e-01 5.000000e+00 0.000000e+00 0.000000e+00
2.000000e+00 2.220000e+02 7.900000e+01 6.756240e-02 1.211270e-03 5.000000e-04 1.026190e+05 2.032000e+01 1.669700e-01 0.000000e+00 2.884360e+02 2.893310e-03 2.295150e-10 1.252680e-10 7.677720e-01 2.293350e-01 6.000000e+00 0.000000e+00 0.000000e+00
2.000000e+00 1.940000e+02 1.210000e+03 5.406850e-02 2.314290e-02 5.000000e-04 1.025820e+05 1.203590e+01 1.195340e+01 0.000000e+00 3.179650e+02 3.025240e-01 1.627670e-07 8.883760e-08 5.370550e-01 1.604210e-01 5.000000e+00 0.000000e+00 0.000000e+00
2.000000e+00 2.230000e+02 1.310000e+02 6.733730e-02 2.008670e-03 5.000000e-04 1.026200e+05 2.043220e+01 2.779270e-01 0.000000e+00 2.893700e+02 1.337950e-02 1.521940e-09 8.306700e-10 7.596980e-01 2.269230e-01 6.000000e+00 0.000000e+00 0.000000e+00
2.000000e+00 2.240000e+02 1.310000e+02 6.701690e-02 2.544860e-03 5.000000e-04 1.026200e+05 2.043220e+01 2.779270e-01 0.000000e+00 2.893700e+02 1.337950e-02 1.521940e-09 8.306700e-10 7.596980e-01 2.269230e-01 6.000000e+00 0.000000e+00 0.000000e+00
2.000000e+00 2.430000e+02 1.064000e+03 6.422990e-02 2.085160e-02 5.000000e-04 1.026690e+05 1.327100e+01 -1.468530e+00 0.000000e+00 2.896790e+02 1.143950e-01 4.337820e-09 2.367570e-09 6.819150e-01 2.036900e-01 5.000000e+00 0.000000e+00 0.000000e+00
2.000000e+00 2.440000e+02 1.220000e+03 6.412360e-02 2.312760e-02 5.000000e-04 1.027160e+05 1.272020e+01 -7.978450e-01 0.000000e+00 2.881780e+02 8.367130e-02 9.902440e-10 5.404710e-10 7.055730e-01 2.107560e-01 8.000000e+00 0.000000e+00 0.000000e+00
2.000000e+00 2.420000e+02 1.012000e+03 6.403390e-02 1.997840e-02 5.000000e-04 1.026600e+05 1.348910e+01 -1.180450e+00 0.000000e+00 2.922170e+02 1.515860e-01 7.324360e-09 3.997610e-09 6.532770e-01 1.951370e-01 9.000000e+00 0.000000e+00 0.000000e+00
2.000000e+00 2.410000e+02 1.011000e+03 6.370710e-02 1.951980e-02 5.000000e-04 1.026690e+05 1.306550e+01 -1.481560e+00 0.000000e+00 2.920470e+02 1.669120e-01 9.466330e-09 5.166690e-09 6.414760e-01 1.916120e-01 8.000000e+00 0.000000e+00 0.000000e+00
2.000000e+00 2.250000e+02 1.810000e+02 6.591770e-02 3.196990e-03 5.000000e-04 1.026100e+05 2.033880e+01 8.186370e-02 0.000000e+00 2.927880e+02 4.031790e-02 8.008290e-09 4.370890e-09 7.389550e-01 2.207270e-01 5.000000e+00 0.000000e+00 0.000000e+00
2.000000e+00 2.270000e+02 2.850000e+02 6.539290e-02 5.338460e-03 5.000000e-04 1.026110e+05 2.001790e+01 -4.789820e-01 0.000000e+00 3.184870e+02 1.036610e-01 6.206870e-08 3.387690e-08 6.901810e-01 2.061580e-01 6.000000e+00 0.000000e+00 0.000000e+00
2.000000e+00 2.400000e+02 1.011000e+03 6.320650e-02 1.952740e-02 5.000000e-04 1.026690e+05 1.306550e+01 -1.481560e+00 0.000000e+00 2.920470e+02 1.669120e-01 9.466330e-09 5.166690e-09 6.414760e-01 1.916120e-01 8.000000e+00 0.000000e+00 0.000000e+00
2.000000e+00 1.930000e+02 1.209000e+03 5.366790e-02 2.378340e-02 5.000000e-04 1.025590e+05 1.154380e+01 1.162550e+01 0.000000e+00 3.234260e+02 3.137350e-01 2.356670e-07 1.286260e-07 5.284220e-01 1.578430e-01 8.000000e+00 0.000000e+00 0.000000e+00
2.000000e+00 2.450000e+02 1.479000e+03 6.344560e-02 2.822010e-02 5.000000e-04 1.027570e+05 1.390790e+01 2.976020e+00 0.000000e+00 2.880500e+02 8.904830e-02 1.322890e-09 7.220260e-10 7.014330e-01 2.095190e-01 8.000000e+00 0.000000e+00 0.000000e+00
2.000000e+00 2.260000e+02 2.830000e+02 6.391740e-02 5.704600e-03 5.000000e-04 1.026070e+05 1.946740e+01 3.763160e-01 0.000000e+00 3.180220e+02 8.639660e-02 9.236660e-08 5.041330e-08 7.034750e-01 2.101290e-01 6.000000e+00 0.000000e+00 0.000000e+00
2.000000e+00 1.230000e+02 1.214000e+03 5.841450e-02 2.367550e-02 5.000000e-04 1.026480e+05 1.402010e+01 3.936340e+00 0.000000e+00 2.995800e+02 3.142220e-01 5.116040e-08 2.792310e-08 5.280500e-01 1.577280e-01 9.000000e+00 0.000000e+00 0.000000e+00
2.000000e+00 2.390000e+02 1.061000e+03 6.194320e-02 2.069370e-02 5.000000e-04 1.026700e+05 1.262360e+01 -1.073130e+00 0.000000e+00 2.946710e+02 2.617740e-01 2.560140e-08 1.397320e-08 5.684340e-01 1.697920e-01 7.000000e+00 0.000000e+00 0.000000e+00
2.000000e+00 2.640000e+02 5.430000e+02 6.310940e-02 1.075570e-02 5.000000e-04 1.026310e+05 1.818940e+01 5.586190e-01 0.000000e+00 3.542270e+02 1.500290e-01 6.781060e-07 3.701080e-07 6.544770e-01 1.954930e-01 6.000000e+00 0.000000e+00 0.000000e+00
2.000000e+00 2.800000e+02 1.323000e+03 6.311310e-02 2.576010e-02 5.000000e-04 1.027380e+05 1.394600e+01 -2.822360e-02 0.000000e+00 2.881740e+02 9.140940e-02 2.050050e-09 1.118910e-09 6.996150e-01 2.089760e-01 5.000000e+00 0.000000e+00 0.000000e+00
2.000000e+00 2.790000e+02 1.270000e+03 6.298750e-02 2.492070e-02 5.000000e-04 1.027140e+05 1.442150e+01 -1.539330e+00 0.000000e+00 2.884650e+02 1.096480e-01 5.117710e-09 2.793230e-09 6.855710e-01 2.047810e-01 5.000000e+00 0.000000e+00 0.000000e+00
2.000000e+00 2.810000e+02 1.426000e+03 6.292670e-02 2.751280e-02 5.000000e-04 1.027250e+05 1.516620e+01 1.144210e+00 0.000000e+00 2.883470e+02 9.918730e-02 4.464930e-09 2.436940e-09 6.936260e-01 2.071860e-01 6.000000e+00 0.000000e+00 0.000000e+00
2.000000e+00 2.630000e+02 4.910000e+02 6.352300e-02 9.315970e-03 5.000000e-04 1.026270e+05 2.001110e+01 -1.763850e-01 0.000000e+00 3.566080e+02 1.336610e-01 6.656690e-07 3.633200e-07 6.670810e-01 1.992570e-01 5.000000e+00 0.000000e+00 0.000000e+00
2.000000e+00 2.620000e+02 3.860000e+02 6.261260e-02 7.763000e-03 5.000000e-04 1.026220e+05 2.030050e+01 1.351330e+00 0.000000e+00 3.429150e+02 9.684260e-02 3.896340e-07 2.126610e-07 6.954310e-01 2.077260e-01 5.000000e+00 0.000000e+00 0.000000e+00
2.000000e+00 2.600000e+02 1.270000e+02 6.308990e-02 2.733850e-03 5.000000e-04 1.026040e+05 2.051910e+01 2.338260e-01 0.000000e+00 2.887950e+02 8.282950e-03 2.724640e-09 1.487100e-09 7.636220e-01 2.280950e-01 5.000000e+00 0.000000e+00 0.000000e+00
2.000000e+00 2.610000e+02 2.300000e+02 6.262920e-02 4.950200e-03 5.000000e-04 1.026080e+05 2.000580e+01 7.346570e-01 0.000000e+00 3.006560e+02 4.723700e-02 5.524420e-08 3.015200e-08 7.336270e-01 2.191360e-01 5.000000e+00 0.000000e+00 0.000000e+00
2.000000e+00 2.590000e+02 7.500000e+01 6.322970e-02 1.409390e-03 5.000000e-04 1.026050e+05 2.065720e+01 8.308610e-02 0.000000e+00 2.882590e+02 1.651130e-03 3.448770e-10 1.882330e-10 7.687290e-01 2.296200e-01 6.000000e+00 0.000000e+00 0.000000e+00
2.000000e+00 2.580000e+02 2.300000e+01 6.325600e-02 0.000000e+00 5.000000e-04 1.026060e+05 2.067580e+01 8.619570e-02 0.000000e+00 2.882080e+02 2.917050e-04 3.940880e-11 2.150920e-11 7.697750e-01 2.299330e-01 5.000000e+00 0.000000e+00 0.000000e+00
2.000000e+00 2.650000e+02 7.990000e+02 5.923020e-02 1.546650e-02 5.000000e-04 1.026480e+05 1.044880e+01 7.562000e+00 0.000000e+00 3.435520e+02 2.046980e-01 7.086340e-07 3.867690e-07 6.123810e-01 1.829200e-01 1.100000e+01 0.000000e+00 0.000000e+00
2.000000e+00 2.780000e+02 1.270000e+03 6.272290e-02 2.475050e-02 5.000000e-04 1.027140e+05 1.442150e+01 -1.539330e+00 0.000000e+00 2.884650e+02 1.096480e-01 5.117710e-09 2.793230e-09 6.855710e-01 2.047810e-01 5.000000e+00 0.000000e+00 0.000000e+00