# PROC_ID	PARCEL_ID	CellI	X	Y	Z	p	Ux	Uy	Uz	T	C3H8	CO2	H2O	N2	O2
2	90	1080	0.0805918	0.0201452	0.0005	102692	11.4024	4.38551	0	292.857	0.183141	1.24924e-11	6.8183e-12	0.628981	0.187878
2	89	560	0.0801512	0.0107959	0.0005	102625	17.1597	-3.06019	0	297.672	0.278408	2.57814e-10	1.40714e-10	0.555626	0.165966
2	88	559	0.0794123	0.0104527	0.0005	102630	16.1225	-2.47308	0	297.161	0.279706	4.13695e-10	2.25793e-10	0.554627	0.165668
2	87	558	0.0783776	0.0108673	0.0005	102641	15.1036	-1.275	0	297.392	0.275708	9.71336e-10	5.30151e-10	0.557704	0.166588
2	91	1183	0.0799626	0.0229307	0.0005	102696	10.8819	4.67626	0	293.409	0.189548	6.00526e-12	3.27765e-12	0.624048	0.186404
2	86	659	0.075912	0.0126435	0.0005	102639	10.2304	3.39322	0	295.418	0.273357	1.22056e-09	6.66177e-10	0.559514	0.167129
2	74	622	0.09031	0.0117478	0.0005	102705	15.4073	2.43214	0	288.771	0.166935	3.44885e-11	1.88237e-11	0.641459	0.191606
2	92	1184	0.080038	0.0224458	0.0005	102700	10.3656	5.68571	0	293.312	0.194884	5.6576e-12	3.0879e-12	0.61994	0.185176
2	73	570	0.0907729	0.0102147	0.0005	102697	16.5118	2.18071	0	289.678	0.158585	5.23648e-11	2.85805e-11	0.647888	0.193527
2	72	466	0.0901834	0.00878378	0.0005	102683	17.0941	1.04226	0	289.616	0.130874	6.91564e-11	3.77453e-11	0.669227	0.199899
2	68	46	0.0860855	0	0.0005	102643	16.7536	0.10401	0	288.086	0.00469645	9.52524e-13	5.19884e-13	0.766384	0.22892
2	69	150	0.0860708	0.00210358	0.0005	102641	16.6868	0.618231	0	288.371	0.0182548	1.12976e-11	6.16618e-12	0.755944	0.225801
2	70	202	0.0861166	0.00392087	0.0005	102640	16.6704	0.887323	0	288.896	0.0329463	2.9817e-11	1.6274e-11	0.744631	0.222422
2	71	412	0.0886382	0.00744949	0.0005	102657	17.6565	2.30508	0	293.589	0.120778	1.54262e-10	8.41953e-11	0.677	0.202222
2	75	517	0.0893834	0.00999412	0.0005	102677	17.9292	2.84041	0	294.264	0.188424	1.24978e-10	6.82125e-11	0.624915	0.186662
2	93	1132	0.0801994	0.0215027	0.0005	102697	10.8508	5.21432	0	293.158	0.186926	8.92247e-12	4.86985e-12	0.626067	0.187007
2	76	861	0.0695473	0.016519	0.0005	102617	10.8271	3.51155	0	296.163	0.292278	7.12781e-10	3.89033e-10	0.544946	0.162776
2	94	1028	0.080245	0.0199325	0.0005	102687	11.7788	3.30619	0	292.628	0.182968	1.71911e-11	9.38286e-12	0.629114	0.187918
2	113	355	0.0836313	0.006289	0.0005	102629	18.8723	0.56258	0	311.193	0.154092	6.48479e-10	3.53937e-10	0.65135	0.194558
2	112	304	0.0840848	0.00581203	0.0005	102631	18.3984	1.80168	0	296.902	0.0696879	3.38749e-10	1.84888e-10	0.716341	0.213971
2	111	252	0.0841947	0.00499418	0.0005	102633	17.7533	1.34176	0	291.174	0.0481586	1.47742e-10	8.06369e-11	0.732918	0.218923
2	114	355	0.0832132	0.00637823	0.0005	102629	18.8723	0.56258	0	311.193	0.154092	6.48479e-10	3.53937e-10	0.65135	0.194558
2	110	251	0.0839631	0.00423755	0.0005	102633	18.1799	1.15416	0	293.014	0.0587373	3.10791e-10	1.69628e-10	0.724773	0.21649
2	109	147	0.0835494	0.00296292	0.0005	102637	17.5498	0.520477	0	288.678	0.0195768	4.85511e-11	2.6499e-11	0.754926	0.225497
2	108	95	0.0833306	0.00164887	0.0005	102638	17.6028	0.225061	0	288.251	0.007906	1.29828e-11	7.08596e-12	0.763912	0.228182
2	107	95	0.0832005	0.00106486	0.0005	102638	17.6028	0.225061	0	288.251	0.007906	1.29828e-11	7.08596e-12	0.763912	0.228182
2	106	43	0.0830979	0	0.0005	102639	17.495	0.1254	0	288.14	0.00286083	3.24586e-12	1.77158e-12	0.767797	0.229342
2	115	302	0.0829792	0.00564975	0.0005	102630	18.0341	0.313785	0	308.851	0.108801	8.22455e-10	4.48893e-10	0.686224	0.204975
2	118	250	0.082083	0.0049005	0.0005	102631	18.33	0.7002	0	296.746	0.0801589	5.86235e-10	3.19965e-10	0.708278	0.211563
2	77	912	0.0686951	0.0177675	0.0005	102623	12.6394	2.8349	0	299.877	0.25686	1.75922e-09	9.60174e-10	0.572216	0.170924
2	116	145	0.0812994	0.00296378	0.0005	102635	17.948	0.0818785	0	289.607	0.0404105	1.9542e-10	1.06659e-10	0.738884	0.220705
2	128	819	0.0794547	0.0156374	0.0005	102641	13.1762	-3.74196	0	293.404	0.224645	3.74962e-11	2.04653e-11	0.597023	0.178332
2	127	819	0.0792759	0.0154783	0.0005	102641	13.1762	-3.74196	0	293.404	0.224645	3.74962e-11	2.04653e-11	0.597023	0.178332
2	117	144	0.0800157	0.00272621	0.0005	102633	17.9588	-0.125864	0	290.421	0.0533521	2.8274e-10	1.54319e-10	0.72892	0.217728
2	129	871	0.0793246	0.0166759	0.0005	102652	13.4104	-2.5792	0	293.149	0.210577	3.98137e-11	2.17302e-11	0.607855	0.181568
2	126	870	0.0787471	0.0163039	0.0005	102638	14.4157	-3.10006	0	293.113	0.213435	6.13379e-11	3.3478e-11	0.605654	0.180911
2	130	922	0.0785975	0.0177839	0.0005	102642	14.8533	-2.28182	0	292.537	0.193372	6.24039e-11	3.40598e-11	0.621103	0.185525
2	95	1025	0.0773025	0.0194588	0.0005	102644	15.1804	-0.987898	0	290.746	0.144881	7.04543e-11	3.84537e-11	0.65844	0.196678
2	131	1025	0.0770327	0.0192814	0.0005	102644	15.1804	-0.987898	0	290.746	0.144881	7.04543e-11	3.84537e-11	0.65844	0.196678
2	85	972	0.0760545	0.0188829	0.0005	102623	16.5133	-2.72072	0	291.784	0.185665	1.37829e-10	7.52263e-11	0.627037	0.187297
2	152	352	0.0802525	0.00679034	0.0005	102625	18.2198	-0.560513	0	314.681	0.143263	1.55312e-09	8.47685e-10	0.659686	0.197051
2	81	709	0.0733578	0.0131638	0.0005	102627	8.23062	5.26116	0	295.937	0.26486	1.90414e-09	1.03927e-09	0.566057	0.169083
2	151	300	0.0800614	0.00588775	0.0005	102627	17.6997	-0.824501	0	313.048	0.113	1.09086e-09	5.9539e-10	0.682991	0.20401
2	150	247	0.0793055	0.00437458	0.0005	102633	17.7716	-0.993136	0	306.106	0.101233	1.00646e-09	5.49321e-10	0.692051	0.206716
2	125	1072	0.0723449	0.0203412	0.0005	102643	17.1601	1.39253	0	296.211	0.208664	5.83058e-10	3.18231e-10	0.609329	0.182008
2	78	598	0.0665653	0.0116887	0.0005	102607	15.4208	-0.872433	0	319.478	0.274996	2.23427e-08	1.21946e-08	0.558253	0.166751
2	132	1125	0.0735513	0.0216419	0.0005	102644	16.3068	-0.192461	0	290.193	0.136314	2.03053e-10	1.10826e-10	0.66504	0.198646
2	149	246	0.0782258	0.0045688	0.0005	102625	17.6025	-0.968674	0	308.244	0.0983758	1.13018e-09	6.16849e-10	0.694251	0.207374
2	144	35	0.0754206	0	0.0005	102608	17.7611	0.0659853	0	288.232	0.0037625	1.3538e-11	7.38897e-12	0.767103	0.229135
2	145	87	0.0752747	0.00139521	0.0005	102608	17.6685	0.396793	0	288.622	0.0114834	5.19718e-11	2.8366e-11	0.761158	0.227359
2	146	138	0.0749836	0.00245565	0.0005	102610	17.845	0.863634	0	290.352	0.0239532	1.58262e-10	8.63786e-11	0.751554	0.224493
2	147	346	0.0749921	0.00607413	0.0005	102621	18.8478	3.14135	0	319.219	0.0670981	5.6127e-09	3.06339e-09	0.718334	0.214568
2	148	348	0.0766601	0.00617076	0.0005	102624	18.4779	-0.283886	0	324.185	0.0885461	4.09106e-09	2.23288e-09	0.70182	0.209634
2	166	1070	0.0706666	0.0201076	0.0005	102651	15.8154	2.92214	0	298.355	0.205347	9.59018e-10	5.23428e-10	0.611877	0.182775
2	167	1071	0.0715297	0.0208155	0.0005	102649	16.5163	2.56816	0	297.373	0.2106	7.21421e-10	3.93749e-10	0.607835	0.181565
2	165	911	0.067652	0.0174439	0.0005	102624	12.8787	1.8701	0	301.615	0.232937	2.71149e-09	1.47992e-09	0.590639	0.176424
2	168	1071	0.0711471	0.0209855	0.0005	102649	16.5163	2.56816	0	297.373	0.2106	7.21421e-10	3.93749e-10	0.607835	0.181565
2	164	752	0.0649607	0.0147541	0.0005	102635	12.0373	0.84939	0	311.873	0.270172	9.9428e-09	5.42674e-09	0.561968	0.16786
2	153	554	0.0744982	0.0107565	0.0005	102651	17.9606	3.40029	0	325.925	0.168989	1.24368e-08	6.78795e-09	0.63988	0.191132
2	169	1070	0.0702804	0.0209349	0.0005	102651	15.8154	2.92214	0	298.355	0.205347	9.59018e-10	5.23428e-10	0.611877	0.182775
2	163	751	0.0633954	0.0147152	0.0005	102638	12.0473	1.8826	0	315.608	0.269707	2.56509e-08	1.40001e-08	0.562327	0.167966
2	189	554	0.0748366	0.0102356	0.0005	102651	17.9606	3.40029	0	325.925	0.168989	1.24368e-08	6.78795e-09	0.63988	0.191132
2	162	802	0.0624136	0.0152606	0.0005	102643	11.2099	2.78304	0	314.555	0.242203	4.22236e-08	2.30455e-08	0.583505	0.174292
2	188	503	0.0754612	0.00966144	0.0005	102650	19.9144	1.07476	0	329.375	0.14567	1.27631e-08	6.96603e-09	0.657834	0.196496
2	187	502	0.0749882	0.0090718	0.0005	102636	20.6665	2.17485	0	333.78	0.143547	1.46807e-08	8.01269e-09	0.659469	0.196984
2	186	398	0.074172	0.00779263	0.0005	102624	19.0109	3.56352	0	328.11	0.0750648	9.89839e-09	5.4025e-09	0.7122	0.212735
2	185	293	0.0733959	0.00583551	0.0005	102622	18.3656	3.43818	0	309.028	0.0549957	3.68097e-09	2.00906e-09	0.727651	0.217353
2	184	137	0.0730093	0.00283751	0.0005	102609	18.373	1.01924	0	290.004	0.0164495	1.75613e-10	9.58488e-11	0.757334	0.226216
2	190	498	0.0708167	0.00977898	0.0005	102599	19.4281	2.35939	0	339.26	0.183054	3.84359e-08	2.09781e-08	0.62905	0.187896
2	183	84	0.0729559	0.00162507	0.0005	102611	18.9065	0.491804	0	288.522	0.0040688	5.43351e-11	2.96559e-11	0.766867	0.229064
2	182	32	0.0728882	0	0.0005	102610	18.8627	0.229238	0	288.262	0.00153623	1.16431e-11	6.35478e-12	0.768817	0.229647
2	161	803	0.0631015	0.0153955	0.0005	102645	11.6991	1.51491	0	310.683	0.236429	1.23252e-08	6.72707e-09	0.587951	0.17562
2	79	698	0.0623537	0.0139533	0.0005	102637	13.2828	3.27407	0	325.472	0.259899	2.2524e-07	1.22935e-07	0.569876	0.170225
2	124	1056	0.0567109	0.0200266	0.0005	102658	7.83844	11.7414	0	310.419	0.265832	1.65565e-07	9.03649e-08	0.565307	0.168861
2	170	1169	0.0657803	0.0222226	0.0005	102694	12.2444	-0.769823	0	288.424	0.0823877	7.8195e-10	4.26785e-10	0.706562	0.21105
2	191	800	0.0607289	0.0152232	0.0005	102642	10.3114	6.17446	0	325.401	0.233744	2.44164e-07	1.33263e-07	0.590017	0.176239
2	202	909	0.065732	0.0171851	0.0005	102639	13.1199	0.326844	0	301.051	0.216339	5.21453e-09	2.84607e-09	0.603416	0.180245
2	203	962	0.0666994	0.0183231	0.0005	102637	13.8717	0.930017	0	298.848	0.187901	4.65309e-09	2.53964e-09	0.625315	0.186784
2	201	856	0.0646515	0.0165554	0.0005	102640	12.3194	0.522027	0	304.237	0.221446	5.33008e-09	2.90914e-09	0.599483	0.179071
2	204	1014	0.0668619	0.0192311	0.0005	102643	14.1463	0.476682	0	295.732	0.146955	4.29869e-09	2.34621e-09	0.656843	0.196202
2	205	1066	0.0662883	0.0202317	0.0005	102654	13.5474	0.101389	0	292.3	0.111165	2.46219e-09	1.34385e-09	0.684402	0.204433
2	80	1159	0.0552615	0.0224657	0.0005	102625	10.9098	11.9625	0	316.325	0.276716	1.71983e-07	9.38676e-08	0.556926	0.166358
2	206	1117	0.0653842	0.0215806	0.0005	102675	12.5571	-0.884847	0	288.982	0.0881996	1.33193e-09	7.26962e-10	0.702087	0.209714
2	200	855	0.0638076	0.0169806	0.0005	102648	11.8326	0.93425	0	303.582	0.220842	8.28856e-09	4.52386e-09	0.599949	0.179209
2	84	1212	0.0564436	0.0235594	0.0005	102620	13.5486	9.22988	0	310.897	0.308761	1.00056e-07	5.46103e-08	0.532253	0.158986
2	231	393	0.0691684	0.00718986	0.0005	102602	20.3675	1.24084	0	332.119	0.133007	6.27817e-08	3.4266e-08	0.667585	0.199408
2	207	1220	0.0646943	0.0235328	0.0005	102716	12.7202	-0.797845	0	288.178	0.0836713	9.90244e-10	5.40471e-10	0.705573	0.210756
2	229	288	0.068766	0.00524605	0.0005	102616	20.5825	0.243011	0	310.694	0.109459	3.55739e-08	1.94161e-08	0.685724	0.204818
2	192	1158	0.0544299	0.0227972	0.0005	102617	10.6009	12.2893	0	319.523	0.270224	2.21486e-07	1.20886e-07	0.561924	0.167851
2	228	235	0.0677183	0.00498614	0.0005	102616	20.5595	0.209281	0	301.011	0.0842648	2.10672e-08	1.14984e-08	0.705117	0.210619
2	220	27	0.067677	0	0.0005	102617	20.2888	0.0628786	0	288.259	0.00055616	3.00241e-11	1.6387e-11	0.769572	0.229872
2	221	27	0.0676439	0.000764397	0.0005	102617	20.2888	0.0628786	0	288.259	0.00055616	3.00241e-11	1.6387e-11	0.769572	0.229872
2	222	79	0.0675624	0.00121127	0.0005	102619	20.32	0.16697	0	288.436	0.00289331	2.29515e-10	1.25268e-10	0.767772	0.229335
2	194	1210	0.0540685	0.0231429	0.0005	102582	12.0359	11.9534	0	317.965	0.302524	1.62767e-07	8.88376e-08	0.537055	0.160421
2	223	131	0.0673373	0.00200867	0.0005	102620	20.4322	0.277927	0	289.37	0.0133795	1.52194e-09	8.3067e-10	0.759698	0.226923
2	224	131	0.0670169	0.00254486	0.0005	102620	20.4322	0.277927	0	289.37	0.0133795	1.52194e-09	8.3067e-10	0.759698	0.226923
2	243	1064	0.0642299	0.0208516	0.0005	102669	13.271	-1.46853	0	289.679	0.114395	4.33782e-09	2.36757e-09	0.681915	0.20369
2	244	1220	0.0641236	0.0231276	0.0005	102716	12.7202	-0.797845	0	288.178	0.0836713	9.90244e-10	5.40471e-10	0.705573	0.210756
2	242	1012	0.0640339	0.0199784	0.0005	102660	13.4891	-1.18045	0	292.217	0.151586	7.32436e-09	3.99761e-09	0.653277	0.195137
2	241	1011	0.0637071	0.0195198	0.0005	102669	13.0655	-1.48156	0	292.047	0.166912	9.46633e-09	5.16669e-09	0.641476	0.191612
2	225	181	0.0659177	0.00319699	0.0005	102610	20.3388	0.0818637	0	292.788	0.0403179	8.00829e-09	4.37089e-09	0.738955	0.220727
2	227	285	0.0653929	0.00533846	0.0005	102611	20.0179	-0.478982	0	318.487	0.103661	6.20687e-08	3.38769e-08	0.690181	0.206158
2	240	1011	0.0632065	0.0195274	0.0005	102669	13.0655	-1.48156	0	292.047	0.166912	9.46633e-09	5.16669e-09	0.641476	0.191612
2	193	1209	0.0536679	0.0237834	0.0005	102559	11.5438	11.6255	0	323.426	0.313735	2.35667e-07	1.28626e-07	0.528422	0.157843
2	245	1479	0.0634456	0.0282201	0.0005	102757	13.9079	2.97602	0	288.05	0.0890483	1.32289e-09	7.22026e-10	0.701433	0.209519
2	226	283	0.0639174	0.0057046	0.0005	102607	19.4674	0.376316	0	318.022	0.0863966	9.23666e-08	5.04133e-08	0.703475	0.210129
2	123	1214	0.0584145	0.0236755	0.0005	102648	14.0201	3.93634	0	299.58	0.314222	5.11604e-08	2.79231e-08	0.52805	0.157728
2	239	1061	0.0619432	0.0206937	0.0005	102670	12.6236	-1.07313	0	294.671	0.261774	2.56014e-08	1.39732e-08	0.568434	0.169792
2	264	543	0.0631094	0.0107557	0.0005	102631	18.1894	0.558619	0	354.227	0.150029	6.78106e-07	3.70108e-07	0.654477	0.195493
2	280	1323	0.0631131	0.0257601	0.0005	102738	13.946	-0.0282236	0	288.174	0.0914094	2.05005e-09	1.11891e-09	0.699615	0.208976
2	279	1270	0.0629875	0.0249207	0.0005	102714	14.4215	-1.53933	0	288.465	0.109648	5.11771e-09	2.79323e-09	0.685571	0.204781
2	281	1426	0.0629267	0.0275128	0.0005	102725	15.1662	1.14421	0	288.347	0.0991873	4.46493e-09	2.43694e-09	0.693626	0.207186
2	263	491	0.063523	0.00931597	0.0005	102627	20.0111	-0.176385	0	356.608	0.133661	6.65669e-07	3.6332e-07	0.667081	0.199257
2	262	386	0.0626126	0.007763	0.0005	102622	20.3005	1.35133	0	342.915	0.0968426	3.89634e-07	2.12661e-07	0.695431	0.207726
2	260	127	0.0630899	0.00273385	0.0005	102604	20.5191	0.233826	0	288.795	0.00828295	2.72464e-09	1.4871e-09	0.763622	0.228095
2	261	230	0.0626292	0.0049502	0.0005	102608	20.0058	0.734657	0	300.656	0.047237	5.52442e-08	3.0152e-08	0.733627	0.219136
2	259	75	0.0632297	0.00140939	0.0005	102605	20.6572	0.0830861	0	288.259	0.00165113	3.44877e-10	1.88233e-10	0.768729	0.22962
2	258	23	0.063256	0	0.0005	102606	20.6758	0.0861957	0	288.208	0.000291705	3.94088e-11	2.15092e-11	0.769775	0.229933
2	265	799	0.0592302	0.0154665	0.0005	102648	10.4488	7.562	0	343.552	0.204698	7.08634e-07	3.86769e-07	0.612381	0.18292
2	278	1270	0.0627229	0.0247505	0.0005	102714	14.4215	-1.53933	0	288.465	0.109648	5.11771e-09	2.79323e-09	0.685571	0.204781
2	238	1266	0.0585115	0.0247456	0.0005	102642	14.768	3.94009	0	296.613	0.315434	4.6448e-08	2.53511e-08	0.527116	0.15745
2	282	1582	0.0623964	0.0300485	0.0005	102709	14.295	5.79222	0	287.977	0.0819484	1.5638e-09	8.53514e-10	0.7069	0.211152
2	277	1270	0.0625164	0.0246801	0.0005	102714	14.4215	-1.53933	0	288.465	0.109648	5.11771e-09	2.79323e-09	0.685571	0.204781
2	208	1789	0.0617434	0.0340403	0.0005	102682	13.574	10.3302	0	287.868	0.0801596	3.68686e-10	2.01227e-10	0.708276	0.211564
2	266	900	0.0561152	0.0177839	0.0005	102650	9.5176	10.2152	0	355.199	0.192048	1.01971e-06	5.56554e-07	0.622122	0.185828
2	276	1322	0.0621489	0.0251331	0.0005	102720	14.7836	-0.916086	0	288.47	0.108766	5.2606e-09	2.87122e-09	0.68625	0.204984
2	237	1316	0.0568435	0.0258813	0.0005	102564	15.1405	8.15723	0	303.994	0.336006	7.30511e-08	3.9871e-08	0.511276	0.152718
2	230	1002	0.0541774	0.0195327	0.0005	102666	9.81669	10.5596	0	344.61	0.21378	7.99355e-07	4.36285e-07	0.605379	0.18084
2	283	1685	0.0614403	0.0329087	0.0005	102664	14.2305	8.80364	0	287.879	0.0731644	1.20146e-09	6.55751e-10	0.713662	0.213174
2	246	1788	0.0608828	0.0349589	0.0005	102660	14.1938	11.31	0	287.836	0.068464	7.81959e-10	4.2679e-10	0.717281	0.214255
2	155	1259	0.0519761	0.0243831	0.0005	102470	11.7099	9.20327	0	325.223	0.39603	3.20627e-07	1.74997e-07	0.465056	0.138914
2	267	949	0.0539448	0.0184982	0.0005	102653	13.9088	6.93523	0	384.89	0.232531	1.92304e-06	1.04958e-06	0.590953	0.176513
2	122	1369	0.0571307	0.0267275	0.0005	102566	17.4243	5.89278	0	300.976	0.328588	6.12319e-08	3.34201e-08	0.516993	0.154419
2	154	1155	0.0514566	0.0225031	0.0005	102556	12.1314	8.86669	0	344.322	0.368439	7.7697e-07	4.24067e-07	0.486305	0.145255
2	318	1581	0.0610374	0.030739	0.0005	102670	15.8192	5.81361	0	288.114	0.0825079	3.08809e-09	1.68547e-09	0.70647	0.211023
2	317	1529	0.0611765	0.0293831	0.0005	102676	16.5391	3.85768	0	288.473	0.095781	6.11926e-09	3.33987e-09	0.69625	0.207969
2	319	1684	0.0605384	0.0322645	0.0005	102631	15.4964	9.20138	0	287.968	0.0701339	2.09056e-09	1.14102e-09	0.715996	0.21387
2	308	488	0.0601635	0.00942743	0.0005	102614	20.6222	4.43963	0	353.113	0.122648	1.43715e-06	7.84393e-07	0.675561	0.201788
2	300	123	0.0594689	0.00299173	0.0005	102613	21.4477	0.691841	0	288.47	0.0083633	1.06829e-08	5.83068e-09	0.76356	0.228077
2	301	175	0.0594767	0.00346986	0.0005	102613	21.3828	0.916751	0	290.102	0.025648	4.64927e-08	2.53756e-08	0.750251	0.224101
2	302	175	0.0594273	0.00386657	0.0005	102613	21.3828	0.916751	0	290.102	0.025648	4.64927e-08	2.53756e-08	0.750251	0.224101
2	299	123	0.059331	0.00217019	0.0005	102613	21.4477	0.691841	0	288.47	0.0083633	1.06829e-08	5.83068e-09	0.76356	0.228077
2	316	1476	0.060824	0.0285151	0.0005	102646	18.4634	1.82247	0	290.916	0.167774	2.17527e-08	1.18726e-08	0.640817	0.191409
2	298	71	0.0592361	0.00138127	0.0005	102610	21.529	0.296905	0	288.205	0.00161007	1.26715e-09	6.91603e-10	0.76876	0.22963
2	297	19	0.059206	0.000864694	0.0005	102609	21.5383	0.196025	0	288.172	0.000290967	1.5307e-10	8.35448e-11	0.769776	0.229933
2	296	19	0.0591735	0	0.0005	102609	21.5383	0.196025	0	288.172	0.000290967	1.5307e-10	8.35448e-11	0.769776	0.229933
2	303	175	0.0591038	0.00389655	0.0005	102613	21.3828	0.916751	0	290.102	0.025648	4.64927e-08	2.53756e-08	0.750251	0.224101
2	320	1735	0.0597907	0.0337273	0.0005	102614	15.9149	10.9449	0	287.964	0.0653359	1.86003e-09	1.0152e-09	0.719692	0.214972
2	307	279	0.0591366	0.00571972	0.0005	102608	21.4442	1.60993	0	306.367	0.0844081	3.67483e-07	2.00571e-07	0.705006	0.210586
2	156	1206	0.0507483	0.0230692	0.0005	102488	11.8147	7.74558	0	337.856	0.446951	7.48629e-07	4.08599e-07	0.425848	0.127199
2	171	1838	0.0587604	0.0358959	0.0005	102634	15.06	13.6061	0	287.955	0.0622239	1.22673e-09	6.69547e-10	0.722087	0.215689
2	119	999	0.0514573	0.0192017	0.0005	102633	14.5353	4.73071	0	384.811	0.329715	2.67449e-06	1.45972e-06	0.51612	0.154162
2	157	999	0.0513869	0.0193278	0.0005	102633	14.5353	4.73071	0	384.811	0.329715	2.67449e-06	1.45972e-06	0.51612	0.154162
2	304	173	0.0577266	0.00352437	0.0005	102607	21.896	0.966732	0	290.221	0.0348384	7.48957e-08	4.08777e-08	0.743174	0.221988
2	315	1475	0.059129	0.0285725	0.0005	102605	19.8281	2.80166	0	294.431	0.229042	3.85084e-08	2.10177e-08	0.593641	0.177317
2	284	1838	0.0585147	0.0355557	0.0005	102634	15.06	13.6061	0	287.955	0.0622239	1.22673e-09	6.69547e-10	0.722087	0.215689
2	233	590	0.0583043	0.0116387	0.0005	102619	19.9925	7.17358	0	366.466	0.165853	4.13674e-06	2.25781e-06	0.642294	0.191847
2	268	895	0.0518608	0.0179315	0.0005	102647	16.0496	4.72922	0	411.026	0.294417	5.29078e-06	2.88768e-06	0.543299	0.162275
2	321	1786	0.0581218	0.0349161	0.0005	102609	16.1174	12.7233	0	288.025	0.06233	1.72493e-09	9.41458e-10	0.722006	0.215664
2	356	1630	0.0587872	0.0312123	0.0005	102561	20.063	8.8101	0	289.881	0.0889217	1.33651e-08	7.29459e-09	0.701533	0.209546
2	357	1630	0.0586403	0.0319792	0.0005	102561	20.063	8.8101	0	289.881	0.0889217	1.33651e-08	7.29459e-09	0.701533	0.209546
2	160	1418	0.05408	0.0274936	0.0005	102435	19.4981	10.0155	0	312.143	0.325266	1.31121e-07	7.15652e-08	0.519544	0.15519
2	358	1682	0.0582282	0.0326869	0.0005	102572	18.5567	10.2889	0	288.71	0.071009	6.39835e-09	3.49219e-09	0.715324	0.213667
2	355	1578	0.0585379	0.0304691	0.0005	102558	21.3203	7.21284	0	291.969	0.127007	2.49841e-08	1.36362e-08	0.672209	0.200785
2	306	275	0.0551683	0.00542778	0.0005	102589	20.7735	1.77789	0	318.732	0.10204	6.88391e-07	3.75721e-07	0.691428	0.206531
2	359	1733	0.057461	0.0333727	0.0005	102559	18.4528	12.4548	0	288.587	0.0632806	4.61934e-09	2.52122e-09	0.721275	0.215444
2	354	1525	0.0577409	0.0298272	0.0005	102516	22.83	7.5041	0	297.805	0.208074	5.50615e-08	3.00523e-08	0.609786	0.18214
2	199	1205	0.0491739	0.0234539	0.0005	102486	12.7797	7.21813	0	345.499	0.486716	1.07565e-06	5.87085e-07	0.395229	0.118053
2	305	274	0.0546753	0.00531769	0.0005	102581	21.1451	2.73711	0	319.078	0.0902421	6.45357e-07	3.52233e-07	0.700511	0.209246
2	271	791	0.0514454	0.0152413	0.0005	102651	16.6624	3.92331	0	411.635	0.254144	1.19394e-05	6.51646e-06	0.574308	0.171529
2	353	1525	0.0570444	0.0295701	0.0005	102516	22.83	7.5041	0	297.805	0.208074	5.50615e-08	3.00523e-08	0.609786	0.18214
2	352	1524	0.0566733	0.0297329	0.0005	102478	23.94	8.75173	0	299.213	0.209602	6.74315e-08	3.68038e-08	0.608607	0.18179
2	360	1732	0.0561238	0.0333722	0.0005	102529	19.5592	13.247	0	288.728	0.0627126	5.27755e-09	2.88046e-09	0.721711	0.215576
2	340	484	0.0568278	0.00941072	0.0005	102629	25.4915	1.59007	0	379.736	0.121607	2.78859e-06	1.522e-06	0.676363	0.202026
2	341	536	0.0568324	0.0104085	0.0005	102616	26.4276	2.18825	0	382.907	0.151741	4.43028e-06	2.41803e-06	0.653159	0.195093
2	274	1416	0.0524398	0.0275024	0.0005	102385	19.277	10.4926	0	316.014	0.334979	1.99158e-07	1.08699e-07	0.512082	0.152938
2	342	588	0.0562537	0.0112809	0.0005	102634	25.1882	3.43734	0	382.564	0.172792	5.78588e-06	3.15791e-06	0.636951	0.190248
2	339	483	0.0554144	0.00924624	0.0005	102593	26.2408	2.14288	0	388.723	0.108451	2.82637e-06	1.54262e-06	0.686496	0.205049
2	334	13	0.0538426	0	0.0005	102603	23.8864	0.312551	0	288.053	0.000186673	1.90224e-10	1.03823e-10	0.769856	0.229957
2	335	65	0.0538248	0.00137438	0.0005	102599	23.8741	0.61718	0	288.077	0.0011719	1.97537e-09	1.07815e-09	0.769098	0.229731
2	336	117	0.0537452	0.00250536	0.0005	102591	23.7065	1.29959	0	288.388	0.0063031	1.6183e-08	8.83264e-09	0.765147	0.22855
2	337	221	0.0534602	0.0045973	0.0005	102569	23.0379	2.6304	0	297.449	0.045349	3.05836e-07	1.66924e-07	0.735069	0.219582
2	338	325	0.0533421	0.00684879	0.0005	102561	22.8096	5.05062	0	336.171	0.0795372	1.29893e-06	7.08951e-07	0.708756	0.211705
2	269	738	0.0506573	0.0147503	0.0005	102635	18.9152	2.79125	0	436.146	0.262945	2.20592e-05	1.20398e-05	0.567531	0.16949
2	343	637	0.0535093	0.0125605	0.0005	102618	25.12	2.78851	0	408.728	0.182854	9.23663e-06	5.04131e-06	0.629202	0.187929
2	232	840	0.04896	0.0169971	0.0005	102621	17.4792	2.35813	0	456.302	0.400442	2.73029e-05	1.49018e-05	0.461658	0.137858
2	322	1729	0.0532994	0.0333454	0.0005	102426	22.808	13.6071	0	288.48	0.0608133	6.65361e-09	3.63151e-09	0.723174	0.216013
2	361	1677	0.0534624	0.0326225	0.0005	102421	24.4374	12.723	0	289.281	0.0672822	1.53111e-08	8.35674e-09	0.718192	0.214525
2	195	944	0.0482483	0.0183969	0.0005	102605	16.6781	2.64924	0	443.132	0.534684	1.43424e-05	7.82803e-06	0.35829	0.107004
2	314	1255	0.0478453	0.0245516	0.0005	102421	16.356	8.55899	0	349.232	0.42217	1.16133e-06	6.33852e-07	0.444929	0.132899
2	198	1151	0.0477613	0.0223152	0.0005	102490	16.058	5.85948	0	380.015	0.520259	3.25152e-06	1.77467e-06	0.369399	0.110337
2	275	1099	0.0479175	0.021196	0.0005	102516	17.1485	4.66503	0	409.724	0.550289	5.66631e-06	3.09265e-06	0.346275	0.103426
2	380	479	0.0512153	0.00984457	0.0005	102591	25.1251	6.94826	0	370.417	0.120446	1.23771e-05	6.75538e-06	0.677257	0.202278
2	379	427	0.0514237	0.00881704	0.0005	102597	25.792	6.85947	0	348.57	0.113144	1.20485e-05	6.57604e-06	0.682878	0.203959
2	381	530	0.0505319	0.0105819	0.0005	102582	23.0425	6.10686	0	383.153	0.140841	1.67818e-05	9.15944e-06	0.661551	0.197582
2	378	375	0.0512415	0.00710802	0.0005	102592	25.5356	6.24275	0	334.383	0.0922646	7.20576e-06	3.93288e-06	0.698951	0.208773
2	395	1624	0.0525495	0.031321	0.0005	102394	26.8372	11.9903	0	290.667	0.0845085	4.15076e-08	2.26547e-08	0.704931	0.210561
2	313	1203	0.0470954	0.0238088	0.0005	102455	16.0533	7.41809	0	358.117	0.478427	1.76774e-06	9.64827e-07	0.401611	0.119959
2	394	1624	0.0525388	0.0310252	0.0005	102394	26.8372	11.9903	0	290.667	0.0845085	4.15076e-08	2.26547e-08	0.704931	0.210561
2	377	271	0.0510876	0.00528833	0.0005	102578	24.8787	3.85967	0	309.168	0.0581921	1.74276e-06	9.5119e-07	0.725196	0.21661
2	396	1623	0.0519677	0.0315756	0.0005	102378	27.4871	11.9951	0	290.621	0.0849492	4.58213e-08	2.50091e-08	0.704592	0.210459
2	382	529	0.049913	0.0107992	0.0005	102596	23.1214	4.76349	0	374.594	0.166383	2.58261e-05	1.40958e-05	0.641874	0.191703
2	376	218	0.050872	0.00417177	0.0005	102599	26.2703	2.30803	0	294.557	0.0418607	1.26822e-06	6.9219e-07	0.737767	0.22037
2	383	530	0.0500929	0.0103045	0.0005	102582	23.0425	6.10686	0	383.153	0.140841	1.67818e-05	9.15944e-06	0.661551	0.197582
2	375	166	0.0505844	0.00303058	0.0005	102590	25.7568	1.67057	0	289.868	0.018149	3.51689e-07	1.9195e-07	0.756026	0.225825
2	236	1465	0.0494471	0.0280512	0.0005	102344	25.1836	12.6495	0	316.719	0.275348	3.62267e-07	1.97724e-07	0.557987	0.166664
2	374	62	0.0504166	0.00178475	0.0005	102569	25.4031	0.539734	0	288.03	0.00135419	1.10366e-08	6.02375e-09	0.768957	0.229689
2	351	1519	0.0513233	0.0298648	0.0005	102367	27.2966	11.4053	0	302.519	0.207614	2.04878e-07	1.11821e-07	0.610149	0.182237
2	393	1571	0.0516417	0.0306519	0.0005	102371	28.3819	11.692	0	295.034	0.131476	1.07612e-07	5.87343e-08	0.66877	0.199754
2	373	62	0.0503177	0.00104259	0.0005	102569	25.4031	0.539734	0	288.03	0.00135419	1.10366e-08	6.02375e-09	0.768957	0.229689
2	372	10	0.0502603	0	0.0005	102563	25.3057	0.334327	0	288.006	0.000143083	6.04949e-10	3.30179e-10	0.76989	0.229967
2	397	1622	0.0508691	0.0318368	0.0005	102366	27.84	12.079	0	290.745	0.0844656	4.96066e-08	2.70751e-08	0.704965	0.21057
2	270	838	0.0467855	0.0169661	0.0005	102632	17.5734	1.34543	0	487.997	0.473806	4.62346e-05	2.52347e-05	0.405161	0.120962
2	384	269	0.0498337	0.00574265	0.0005	102612	27.0594	2.55696	0	310.219	0.0992679	7.27537e-06	3.97087e-06	0.693567	0.207154
2	392	1517	0.0498109	0.029881	0.0005	102337	28.1086	12.9335	0	306.34	0.202345	2.4344e-07	1.32869e-07	0.614202	0.183452
2	286	1671	0.0479597	0.0324962	0.0005	102312	24.7092	10.496	0	288.649	0.0614465	1.40707e-08	7.67973e-09	0.722688	0.215866
2	398	1620	0.048055	0.0318897	0.0005	102340	27.2318	12.0705	0	291.136	0.0771351	4.75667e-08	2.59617e-08	0.710608	0.212257
2	391	1410	0.0467416	0.0270102	0.0005	102375	26.1241	14.3651	0	336.565	0.243938	4.99001e-07	2.72353e-07	0.582169	0.173893
2	433	1514	0.0467863	0.0292973	0.0005	102367	27.613	13.81	0	310.096	0.141384	1.97841e-07	1.07981e-07	0.661142	0.197474
2	344	732	0.0447272	0.0142921	0.0005	102656	20.0067	0.855552	0	520.19	0.315467	0.000101356	5.53198e-05	0.527072	0.157304
2	432	1462	0.0466105	0.0284575	0.0005	102373	27.403	14.535	0	324.959	0.197409	3.37121e-07	1.83999e-07	0.618001	0.18459
2	434	1514	0.0465724	0.0297743	0.0005	102367	27.613	13.81	0	310.096	0.141384	1.97841e-07	1.07981e-07	0.661142	0.197474
2	431	1357	0.0458475	0.0267854	0.0005	102431	25.6157	12.535	0	344.099	0.218463	5.50283e-07	3.00342e-07	0.601783	0.179753
2	421	371	0.0470814	0.00714614	0.0005	102621	30.0405	1.71514	0	376.148	0.19951	4.61209e-05	2.51726e-05	0.616375	0.184044
2	435	1565	0.0459638	0.0300611	0.0005	102341	25.179	11.6802	0	297.014	0.0562733	4.71069e-08	2.57108e-08	0.726672	0.217055
2	345	732	0.0441222	0.0147883	0.0005	102656	20.0067	0.855552	0	520.19	0.315467	0.000101356	5.53198e-05	0.527072	0.157304
2	419	318	0.0466951	0.00671219	0.0005	102525	31.6817	-1.87989	0	393.999	0.176573	3.87088e-05	2.11271e-05	0.634041	0.189326
2	430	1252	0.0446671	0.0244352	0.0005	102406	22.4508	7.74705	0	357.835	0.242656	9.13224e-07	4.98434e-07	0.583154	0.174188
2	436	1512	0.044894	0.0299298	0.0005	102372	25.7753	11.676	0	302.44	0.0376326	3.16821e-08	1.7292e-08	0.741022	0.221345
2	418	317	0.0458942	0.00692451	0.0005	102583	32.4626	-3.91398	0	414.468	0.163744	3.93917e-05	2.14998e-05	0.643935	0.19226
2	429	1147	0.043857	0.0227136	0.0005	102407	20.5676	3.41976	0	382.625	0.303259	1.80101e-06	9.82983e-07	0.536493	0.160246
2	399	1615	0.0437395	0.0311078	0.0005	102311	20.3996	7.62716	0	290.363	0.0470353	7.56271e-09	4.1277e-09	0.733783	0.219182
2	390	939	0.0433122	0.0181862	0.0005	102523	20.3287	2.12309	0	494.278	0.476207	2.27758e-05	1.24309e-05	0.403261	0.120497
2	309	472	0.044528	0.00966953	0.0005	102616	29.459	-3.10289	0	431.948	0.248231	0.000117965	6.43848e-05	0.578838	0.172748
2	428	1147	0.043463	0.0223868	0.0005	102407	20.5676	3.41976	0	382.625	0.303259	1.80101e-06	9.82983e-07	0.536493	0.160246
2	417	317	0.0451267	0.00664672	0.0005	102583	32.4626	-3.91398	0	414.468	0.163744	3.93917e-05	2.14998e-05	0.643935	0.19226
2	437	1511	0.0436471	0.0291601	0.0005	102369	25.0649	10.5308	0	298.659	0.0311225	1.51187e-08	8.25173e-09	0.746035	0.222842
2	427	1251	0.0433749	0.024215	0.0005	102394	24.7863	6.69511	0	349.346	0.18291	7.02904e-07	3.83642e-07	0.62916	0.187929
2	324	1614	0.0424358	0.0311906	0.0005	102302	18.8194	6.47364	0	289.848	0.0472843	4.86072e-09	2.65296e-09	0.733591	0.219125
2	323	1614	0.0420193	0.0315784	0.0005	102302	18.8194	6.47364	0	289.848	0.0472843	4.86072e-09	2.65296e-09	0.733591	0.219125
2	346	782	0.0422444	0.0156789	0.0005	102624	19.9354	0.649273	0	552.322	0.49589	0.000169258	9.23805e-05	0.388118	0.11573
2	416	315	0.043585	0.00696924	0.0005	102603	32.1786	-1.35732	0	429.101	0.104687	1.98918e-05	1.08569e-05	0.68929	0.205992
2	362	1562	0.0420157	0.0303019	0.0005	102335	21.0299	8.0546	0	293.704	0.0331117	8.23382e-09	4.49399e-09	0.744504	0.222385
2	410	2	0.0424199	0	0.0005	102581	26.8266	0.149459	0	287.896	0.000580666	5.58154e-09	3.04638e-09	0.769553	0.229866
2	411	2	0.0423468	0.000858909	0.0005	102581	26.8266	0.149459	0	287.896	0.000580666	5.58154e-09	3.04638e-09	0.769553	0.229866
2	412	54	0.0422216	0.0013697	0.0005	102585	26.6633	0.22917	0	288.23	0.00599016	9.51221e-08	5.19173e-08	0.765388	0.228622
2	347	625	0.0418792	0.0125789	0.0005	102660	24.572	-0.696001	0	533.494	0.299445	0.000338323	0.000184656	0.539346	0.160686